LAMMPS (7 Aug 2019)
OMP_NUM_THREADS environment is not set. Defaulting to 1 thread. (src/comm.cpp:93)
  using 1 OpenMP thread(s) per MPI task


# ----------------- Init Section -----------------

include "system.in.init"
        units lj
        atom_style angle
        pair_style hybrid lj/expand/twopiece 2.5 lj/twopiece 2.5 soft/shift 0.3 zero 1 morse 2.5
ERROR: Unrecognized pair style 'lj/expand/twopiece' (src/force.cpp:262)
Last command:         pair_style hybrid lj/expand/twopiece 2.5 lj/twopiece 2.5 soft/shift 0.3 zero 1 morse 2.5
