LAMMPS (7 Aug 2019)
OMP_NUM_THREADS environment is not set. Defaulting to 1 thread. (src/comm.cpp:93)
  using 1 OpenMP thread(s) per MPI task
Reading data file ...
  orthogonal box = (-20 -20 -20) to (20 20 20)
  1 by 1 by 1 MPI processor grid
  reading atoms ...
  2 atoms
Finding 1-2 1-3 1-4 neighbors ...
  special bond factors lj:   0          0          0         
  special bond factors coul: 0          0          0         
  0 = max # of 1-2 neighbors
  0 = max # of 1-3 neighbors
  0 = max # of 1-4 neighbors
  1 = max # of special neighbors
  special bonds CPU = 1.90735e-05 secs
  read_data CPU = 0.000299931 secs
1 atoms in group atom1
1 atoms in group atom2
Neighbor list info ...
  update every 1 steps, delay 10 steps, check yes
  max neighbors/atom: 2000, page size: 100000
  master list distance cutoff = 2.8
  ghost atom cutoff = 2.8
  binsize = 1.4, bins = 29 29 29
  7 neighbor lists, perpetual/occasional/extra = 6 1 0
  (1) pair lj/expand/twopiece, perpetual, skip from (7)
      attributes: half, newton on
      pair build: skip
      stencil: none
      bin: none
  (2) pair lj/twopiece, perpetual, skip from (7)
      attributes: half, newton on
      pair build: skip
      stencil: none
      bin: none
  (3) pair soft/shift, perpetual, skip from (7)
      attributes: half, newton on
      pair build: skip
      stencil: none
      bin: none
  (4) pair zero, perpetual, skip from (7)
      attributes: half, newton on
      pair build: skip
      stencil: none
      bin: none
  (5) pair morse, perpetual, skip from (7)
      attributes: half, newton on
      pair build: skip
      stencil: none
      bin: none
  (6) compute pair/local, occasional, copy from (7)
      attributes: half, newton on
      pair build: copy
      stencil: none
      bin: none
  (7) neighbor class addition, perpetual
      attributes: half, newton on
      pair build: half/bin/newton
      stencil: half/bin/3d/newton
      bin: standard
Setting up Verlet run ...
  Unit style    : lj
  Current step  : 0
  Time step     : 0.001
Per MPI rank memory allocation (min/avg/max) = 8.714 | 8.714 | 8.714 Mbytes
Step Temp E_pair E_mol TotEng Press 
       0            0 -0.00048816204            0 -0.00048816204 -3.0502677e-08 
     200            0 -0.00048816204            0 -0.00048816204 -3.0502677e-08 
     400            0 -0.00048816204            0 -0.00048816204 -3.0502677e-08 
     600            0 -0.00048816204            0 -0.00048816204 -3.0502677e-08 
     800            0 -0.00048816204            0 -0.00048816204 -3.0502677e-08 
    1000            0 -0.00048816204            0 -0.00048816204 -3.0502677e-08 
Loop time of 0.00375795 on 1 procs for 1000 steps with 2 atoms

Performance: 22991236.239 tau/day, 266102.271 timesteps/s
0.0% CPU use with 1 MPI tasks x 1 OpenMP threads

MPI task timing breakdown:
Section |  min time  |  avg time  |  max time  |%varavg| %total
---------------------------------------------------------------
Pair    | 0.00049925 | 0.00049925 | 0.00049925 |   0.0 | 13.29
Bond    | 0.00029898 | 0.00029898 | 0.00029898 |   0.0 |  7.96
Neigh   | 0          | 0          | 0          |   0.0 |  0.00
Comm    | 0.00052357 | 0.00052357 | 0.00052357 |   0.0 | 13.93
Output  | 0.0010974  | 0.0010974  | 0.0010974  |   0.0 | 29.20
Modify  | 0.00053477 | 0.00053477 | 0.00053477 |   0.0 | 14.23
Other   |            | 0.0008039  |            |       | 21.39

Nlocal:    2 ave 2 max 2 min
Histogram: 1 0 0 0 0 0 0 0 0 0
Nghost:    0 ave 0 max 0 min
Histogram: 1 0 0 0 0 0 0 0 0 0
Neighs:    0 ave 0 max 0 min
Histogram: 1 0 0 0 0 0 0 0 0 0

Total # of neighbors = 0
Ave neighs/atom = 0
Ave special neighs/atom = 0
Neighbor list builds = 0
Dangerous builds = 0
Displacing atoms ...
Neighbor list info ...
  update every 1 steps, delay 10 steps, check yes
  max neighbors/atom: 2000, page size: 100000
  master list distance cutoff = 2.8
  ghost atom cutoff = 2.8
  binsize = 1.4, bins = 29 29 29
  7 neighbor lists, perpetual/occasional/extra = 6 1 0
  (1) pair lj/expand/twopiece, perpetual, skip from (7)
      attributes: half, newton on
      pair build: skip
      stencil: none
      bin: none
  (2) pair lj/twopiece, perpetual, skip from (7)
      attributes: half, newton on
      pair build: skip
      stencil: none
      bin: none
  (3) pair soft/shift, perpetual, skip from (7)
      attributes: half, newton on
      pair build: skip
      stencil: none
      bin: none
  (4) pair zero, perpetual, skip from (7)
      attributes: half, newton on
      pair build: skip
      stencil: none
      bin: none
  (5) pair morse, perpetual, skip from (7)
      attributes: half, newton on
      pair build: skip
      stencil: none
      bin: none
  (6) compute pair/local, occasional, copy from (7)
      attributes: half, newton on
      pair build: copy
      stencil: none
      bin: none
  (7) neighbor class addition, perpetual
      attributes: half, newton on
      pair build: half/bin/newton
      stencil: half/bin/3d/newton
      bin: standard
Setting up Verlet run ...
  Unit style    : lj
  Current step  : 1000
  Time step     : 0.001
Per MPI rank memory allocation (min/avg/max) = 9.833 | 9.833 | 9.833 Mbytes
Step Temp E_pair E_mol TotEng Press 
    1000            0 -0.000518497            0 -0.000518497 -3.2397657e-08 
    1200            0 -0.000518497            0 -0.000518497 -3.2397657e-08 
    1400            0 -0.000518497            0 -0.000518497 -3.2397657e-08 
    1600            0 -0.000518497            0 -0.000518497 -3.2397657e-08 
    1800            0 -0.000518497            0 -0.000518497 -3.2397657e-08 
    2000            0 -0.000518497            0 -0.000518497 -3.2397657e-08 
Loop time of 0.00378299 on 1 procs for 1000 steps with 2 atoms

Performance: 22839091.548 tau/day, 264341.337 timesteps/s
0.0% CPU use with 1 MPI tasks x 1 OpenMP threads

MPI task timing breakdown:
Section |  min time  |  avg time  |  max time  |%varavg| %total
---------------------------------------------------------------
Pair    | 0.00050735 | 0.00050735 | 0.00050735 |   0.0 | 13.41
Bond    | 0.00029945 | 0.00029945 | 0.00029945 |   0.0 |  7.92
Neigh   | 0          | 0          | 0          |   0.0 |  0.00
Comm    | 0.00053811 | 0.00053811 | 0.00053811 |   0.0 | 14.22
Output  | 0.0010855  | 0.0010855  | 0.0010855  |   0.0 | 28.69
Modify  | 0.00053048 | 0.00053048 | 0.00053048 |   0.0 | 14.02
Other   |            | 0.0008221  |            |       | 21.73

Nlocal:    2 ave 2 max 2 min
Histogram: 1 0 0 0 0 0 0 0 0 0
Nghost:    0 ave 0 max 0 min
Histogram: 1 0 0 0 0 0 0 0 0 0
Neighs:    0 ave 0 max 0 min
Histogram: 1 0 0 0 0 0 0 0 0 0

Total # of neighbors = 0
Ave neighs/atom = 0
Ave special neighs/atom = 0
Neighbor list builds = 0
Dangerous builds = 0
Displacing atoms ...
Neighbor list info ...
  update every 1 steps, delay 10 steps, check yes
  max neighbors/atom: 2000, page size: 100000
  master list distance cutoff = 2.8
  ghost atom cutoff = 2.8
  binsize = 1.4, bins = 29 29 29
  7 neighbor lists, perpetual/occasional/extra = 6 1 0
  (1) pair lj/expand/twopiece, perpetual, skip from (7)
      attributes: half, newton on
      pair build: skip
      stencil: none
      bin: none
  (2) pair lj/twopiece, perpetual, skip from (7)
      attributes: half, newton on
      pair build: skip
      stencil: none
      bin: none
  (3) pair soft/shift, perpetual, skip from (7)
      attributes: half, newton on
      pair build: skip
      stencil: none
      bin: none
  (4) pair zero, perpetual, skip from (7)
      attributes: half, newton on
      pair build: skip
      stencil: none
      bin: none
  (5) pair morse, perpetual, skip from (7)
      attributes: half, newton on
      pair build: skip
      stencil: none
      bin: none
  (6) compute pair/local, occasional, copy from (7)
      attributes: half, newton on
      pair build: copy
      stencil: none
      bin: none
  (7) neighbor class addition, perpetual
      attributes: half, newton on
      pair build: half/bin/newton
      stencil: half/bin/3d/newton
      bin: standard
Setting up Verlet run ...
  Unit style    : lj
  Current step  : 2000
  Time step     : 0.001
Per MPI rank memory allocation (min/avg/max) = 9.833 | 9.833 | 9.833 Mbytes
Step Temp E_pair E_mol TotEng Press 
    2000            0 -0.00055105365            0 -0.00055105365 -3.4431359e-08 
    2200            0 -0.00055105365            0 -0.00055105365 -3.4431359e-08 
    2400            0 -0.00055105365            0 -0.00055105365 -3.4431359e-08 
    2600            0 -0.00055105365            0 -0.00055105365 -3.4431359e-08 
    2800            0 -0.00055105365            0 -0.00055105365 -3.4431359e-08 
    3000            0 -0.00055105365            0 -0.00055105365 -3.4431359e-08 
Loop time of 0.00377584 on 1 procs for 1000 steps with 2 atoms

Performance: 22882355.598 tau/day, 264842.079 timesteps/s
0.0% CPU use with 1 MPI tasks x 1 OpenMP threads

MPI task timing breakdown:
Section |  min time  |  avg time  |  max time  |%varavg| %total
---------------------------------------------------------------
Pair    | 0.00050592 | 0.00050592 | 0.00050592 |   0.0 | 13.40
Bond    | 0.00031042 | 0.00031042 | 0.00031042 |   0.0 |  8.22
Neigh   | 0          | 0          | 0          |   0.0 |  0.00
Comm    | 0.000525   | 0.000525   | 0.000525   |   0.0 | 13.90
Output  | 0.0011203  | 0.0011203  | 0.0011203  |   0.0 | 29.67
Modify  | 0.00050259 | 0.00050259 | 0.00050259 |   0.0 | 13.31
Other   |            | 0.0008116  |            |       | 21.49

Nlocal:    2 ave 2 max 2 min
Histogram: 1 0 0 0 0 0 0 0 0 0
Nghost:    0 ave 0 max 0 min
Histogram: 1 0 0 0 0 0 0 0 0 0
Neighs:    0 ave 0 max 0 min
Histogram: 1 0 0 0 0 0 0 0 0 0

Total # of neighbors = 0
Ave neighs/atom = 0
Ave special neighs/atom = 0
Neighbor list builds = 0
Dangerous builds = 0
Displacing atoms ...
Neighbor list info ...
  update every 1 steps, delay 10 steps, check yes
  max neighbors/atom: 2000, page size: 100000
  master list distance cutoff = 2.8
  ghost atom cutoff = 2.8
  binsize = 1.4, bins = 29 29 29
  7 neighbor lists, perpetual/occasional/extra = 6 1 0
  (1) pair lj/expand/twopiece, perpetual, skip from (7)
      attributes: half, newton on
      pair build: skip
      stencil: none
      bin: none
  (2) pair lj/twopiece, perpetual, skip from (7)
      attributes: half, newton on
      pair build: skip
      stencil: none
      bin: none
  (3) pair soft/shift, perpetual, skip from (7)
      attributes: half, newton on
      pair build: skip
      stencil: none
      bin: none
  (4) pair zero, perpetual, skip from (7)
      attributes: half, newton on
      pair build: skip
      stencil: none
      bin: none
  (5) pair morse, perpetual, skip from (7)
      attributes: half, newton on
      pair build: skip
      stencil: none
      bin: none
  (6) compute pair/local, occasional, copy from (7)
      attributes: half, newton on
      pair build: copy
      stencil: none
      bin: none
  (7) neighbor class addition, perpetual
      attributes: half, newton on
      pair build: half/bin/newton
      stencil: half/bin/3d/newton
      bin: standard
Setting up Verlet run ...
  Unit style    : lj
  Current step  : 3000
  Time step     : 0.001
Per MPI rank memory allocation (min/avg/max) = 9.833 | 9.833 | 9.833 Mbytes
Step Temp E_pair E_mol TotEng Press 
    3000            0 -0.00058601986            0 -0.00058601986 -3.6615503e-08 
    3200            0 -0.00058601986            0 -0.00058601986 -3.6615503e-08 
    3400            0 -0.00058601986            0 -0.00058601986 -3.6615503e-08 
    3600            0 -0.00058601986            0 -0.00058601986 -3.6615503e-08 
    3800            0 -0.00058601986            0 -0.00058601986 -3.6615503e-08 
    4000            0 -0.00058601986            0 -0.00058601986 -3.6615503e-08 
Loop time of 0.00375891 on 1 procs for 1000 steps with 2 atoms

Performance: 22985403.121 tau/day, 266034.758 timesteps/s
0.0% CPU use with 1 MPI tasks x 1 OpenMP threads

MPI task timing breakdown:
Section |  min time  |  avg time  |  max time  |%varavg| %total
---------------------------------------------------------------
Pair    | 0.00049901 | 0.00049901 | 0.00049901 |   0.0 | 13.28
Bond    | 0.00029922 | 0.00029922 | 0.00029922 |   0.0 |  7.96
Neigh   | 0          | 0          | 0          |   0.0 |  0.00
Comm    | 0.00051284 | 0.00051284 | 0.00051284 |   0.0 | 13.64
Output  | 0.0010946  | 0.0010946  | 0.0010946  |   0.0 | 29.12
Modify  | 0.00051618 | 0.00051618 | 0.00051618 |   0.0 | 13.73
Other   |            | 0.0008371  |            |       | 22.27

Nlocal:    2 ave 2 max 2 min
Histogram: 1 0 0 0 0 0 0 0 0 0
Nghost:    0 ave 0 max 0 min
Histogram: 1 0 0 0 0 0 0 0 0 0
Neighs:    0 ave 0 max 0 min
Histogram: 1 0 0 0 0 0 0 0 0 0

Total # of neighbors = 0
Ave neighs/atom = 0
Ave special neighs/atom = 0
Neighbor list builds = 0
Dangerous builds = 0
Displacing atoms ...
Neighbor list info ...
  update every 1 steps, delay 10 steps, check yes
  max neighbors/atom: 2000, page size: 100000
  master list distance cutoff = 2.8
  ghost atom cutoff = 2.8
  binsize = 1.4, bins = 29 29 29
  7 neighbor lists, perpetual/occasional/extra = 6 1 0
  (1) pair lj/expand/twopiece, perpetual, skip from (7)
      attributes: half, newton on
      pair build: skip
      stencil: none
      bin: none
  (2) pair lj/twopiece, perpetual, skip from (7)
      attributes: half, newton on
      pair build: skip
      stencil: none
      bin: none
  (3) pair soft/shift, perpetual, skip from (7)
      attributes: half, newton on
      pair build: skip
      stencil: none
      bin: none
  (4) pair zero, perpetual, skip from (7)
      attributes: half, newton on
      pair build: skip
      stencil: none
      bin: none
  (5) pair morse, perpetual, skip from (7)
      attributes: half, newton on
      pair build: skip
      stencil: none
      bin: none
  (6) compute pair/local, occasional, copy from (7)
      attributes: half, newton on
      pair build: copy
      stencil: none
      bin: none
  (7) neighbor class addition, perpetual
      attributes: half, newton on
      pair build: half/bin/newton
      stencil: half/bin/3d/newton
      bin: standard
Setting up Verlet run ...
  Unit style    : lj
  Current step  : 4000
  Time step     : 0.001
Per MPI rank memory allocation (min/avg/max) = 9.833 | 9.833 | 9.833 Mbytes
Step Temp E_pair E_mol TotEng Press 
    4000            0 -0.00062360153            0 -0.00062360153 -3.8962936e-08 
    4200            0 -0.00062360153            0 -0.00062360153 -3.8962936e-08 
    4400            0 -0.00062360153            0 -0.00062360153 -3.8962936e-08 
    4600            0 -0.00062360153            0 -0.00062360153 -3.8962936e-08 
    4800            0 -0.00062360153            0 -0.00062360153 -3.8962936e-08 
    5000            0 -0.00062360153            0 -0.00062360153 -3.8962936e-08 
Loop time of 0.00380397 on 1 procs for 1000 steps with 2 atoms

Performance: 22713122.256 tau/day, 262883.359 timesteps/s
410.8% CPU use with 1 MPI tasks x 1 OpenMP threads

MPI task timing breakdown:
Section |  min time  |  avg time  |  max time  |%varavg| %total
---------------------------------------------------------------
Pair    | 0.00051498 | 0.00051498 | 0.00051498 |   0.0 | 13.54
Bond    | 0.00029588 | 0.00029588 | 0.00029588 |   0.0 |  7.78
Neigh   | 0          | 0          | 0          |   0.0 |  0.00
Comm    | 0.00051713 | 0.00051713 | 0.00051713 |   0.0 | 13.59
Output  | 0.0011315  | 0.0011315  | 0.0011315  |   0.0 | 29.75
Modify  | 0.00052214 | 0.00052214 | 0.00052214 |   0.0 | 13.73
Other   |            | 0.0008223  |            |       | 21.62

Nlocal:    2 ave 2 max 2 min
Histogram: 1 0 0 0 0 0 0 0 0 0
Nghost:    0 ave 0 max 0 min
Histogram: 1 0 0 0 0 0 0 0 0 0
Neighs:    0 ave 0 max 0 min
Histogram: 1 0 0 0 0 0 0 0 0 0

Total # of neighbors = 0
Ave neighs/atom = 0
Ave special neighs/atom = 0
Neighbor list builds = 0
Dangerous builds = 0
Displacing atoms ...
Neighbor list info ...
  update every 1 steps, delay 10 steps, check yes
  max neighbors/atom: 2000, page size: 100000
  master list distance cutoff = 2.8
  ghost atom cutoff = 2.8
  binsize = 1.4, bins = 29 29 29
  7 neighbor lists, perpetual/occasional/extra = 6 1 0
  (1) pair lj/expand/twopiece, perpetual, skip from (7)
      attributes: half, newton on
      pair build: skip
      stencil: none
      bin: none
  (2) pair lj/twopiece, perpetual, skip from (7)
      attributes: half, newton on
      pair build: skip
      stencil: none
      bin: none
  (3) pair soft/shift, perpetual, skip from (7)
      attributes: half, newton on
      pair build: skip
      stencil: none
      bin: none
  (4) pair zero, perpetual, skip from (7)
      attributes: half, newton on
      pair build: skip
      stencil: none
      bin: none
  (5) pair morse, perpetual, skip from (7)
      attributes: half, newton on
      pair build: skip
      stencil: none
      bin: none
  (6) compute pair/local, occasional, copy from (7)
      attributes: half, newton on
      pair build: copy
      stencil: none
      bin: none
  (7) neighbor class addition, perpetual
      attributes: half, newton on
      pair build: half/bin/newton
      stencil: half/bin/3d/newton
      bin: standard
Setting up Verlet run ...
  Unit style    : lj
  Current step  : 5000
  Time step     : 0.001
Per MPI rank memory allocation (min/avg/max) = 9.833 | 9.833 | 9.833 Mbytes
Step Temp E_pair E_mol TotEng Press 
    5000            0 -0.00066402458            0 -0.00066402458 -4.1487748e-08 
    5200            0 -0.00066402458            0 -0.00066402458 -4.1487748e-08 
    5400            0 -0.00066402458            0 -0.00066402458 -4.1487748e-08 
    5600            0 -0.00066402458            0 -0.00066402458 -4.1487748e-08 
    5800            0 -0.00066402458            0 -0.00066402458 -4.1487748e-08 
    6000            0 -0.00066402458            0 -0.00066402458 -4.1487748e-08 
Loop time of 0.00376296 on 1 procs for 1000 steps with 2 atoms

Performance: 22960645.353 tau/day, 265748.210 timesteps/s
0.0% CPU use with 1 MPI tasks x 1 OpenMP threads

MPI task timing breakdown:
Section |  min time  |  avg time  |  max time  |%varavg| %total
---------------------------------------------------------------
Pair    | 0.00050402 | 0.00050402 | 0.00050402 |   0.0 | 13.39
Bond    | 0.00029135 | 0.00029135 | 0.00029135 |   0.0 |  7.74
Neigh   | 0          | 0          | 0          |   0.0 |  0.00
Comm    | 0.00051999 | 0.00051999 | 0.00051999 |   0.0 | 13.82
Output  | 0.0010905  | 0.0010905  | 0.0010905  |   0.0 | 28.98
Modify  | 0.00052452 | 0.00052452 | 0.00052452 |   0.0 | 13.94
Other   |            | 0.0008326  |            |       | 22.13

Nlocal:    2 ave 2 max 2 min
Histogram: 1 0 0 0 0 0 0 0 0 0
Nghost:    0 ave 0 max 0 min
Histogram: 1 0 0 0 0 0 0 0 0 0
Neighs:    0 ave 0 max 0 min
Histogram: 1 0 0 0 0 0 0 0 0 0

Total # of neighbors = 0
Ave neighs/atom = 0
Ave special neighs/atom = 0
Neighbor list builds = 0
Dangerous builds = 0
Displacing atoms ...
Neighbor list info ...
  update every 1 steps, delay 10 steps, check yes
  max neighbors/atom: 2000, page size: 100000
  master list distance cutoff = 2.8
  ghost atom cutoff = 2.8
  binsize = 1.4, bins = 29 29 29
  7 neighbor lists, perpetual/occasional/extra = 6 1 0
  (1) pair lj/expand/twopiece, perpetual, skip from (7)
      attributes: half, newton on
      pair build: skip
      stencil: none
      bin: none
  (2) pair lj/twopiece, perpetual, skip from (7)
      attributes: half, newton on
      pair build: skip
      stencil: none
      bin: none
  (3) pair soft/shift, perpetual, skip from (7)
      attributes: half, newton on
      pair build: skip
      stencil: none
      bin: none
  (4) pair zero, perpetual, skip from (7)
      attributes: half, newton on
      pair build: skip
      stencil: none
      bin: none
  (5) pair morse, perpetual, skip from (7)
      attributes: half, newton on
      pair build: skip
      stencil: none
      bin: none
  (6) compute pair/local, occasional, copy from (7)
      attributes: half, newton on
      pair build: copy
      stencil: none
      bin: none
  (7) neighbor class addition, perpetual
      attributes: half, newton on
      pair build: half/bin/newton
      stencil: half/bin/3d/newton
      bin: standard
Setting up Verlet run ...
  Unit style    : lj
  Current step  : 6000
  Time step     : 0.001
Per MPI rank memory allocation (min/avg/max) = 9.833 | 9.833 | 9.833 Mbytes
Step Temp E_pair E_mol TotEng Press 
    6000            0 -0.00070753708            0 -0.00070753708 -4.4205412e-08 
    6200            0 -0.00070753708            0 -0.00070753708 -4.4205412e-08 
    6400            0 -0.00070753708            0 -0.00070753708 -4.4205412e-08 
    6600            0 -0.00070753708            0 -0.00070753708 -4.4205412e-08 
    6800            0 -0.00070753708            0 -0.00070753708 -4.4205412e-08 
    7000            0 -0.00070753708            0 -0.00070753708 -4.4205412e-08 
Loop time of 0.00378013 on 1 procs for 1000 steps with 2 atoms

Performance: 22856377.521 tau/day, 264541.406 timesteps/s
0.0% CPU use with 1 MPI tasks x 1 OpenMP threads

MPI task timing breakdown:
Section |  min time  |  avg time  |  max time  |%varavg| %total
---------------------------------------------------------------
Pair    | 0.0005095  | 0.0005095  | 0.0005095  |   0.0 | 13.48
Bond    | 0.00029111 | 0.00029111 | 0.00029111 |   0.0 |  7.70
Neigh   | 0          | 0          | 0          |   0.0 |  0.00
Comm    | 0.00053596 | 0.00053596 | 0.00053596 |   0.0 | 14.18
Output  | 0.0010824  | 0.0010824  | 0.0010824  |   0.0 | 28.63
Modify  | 0.00055122 | 0.00055122 | 0.00055122 |   0.0 | 14.58
Other   |            | 0.0008099  |            |       | 21.43

Nlocal:    2 ave 2 max 2 min
Histogram: 1 0 0 0 0 0 0 0 0 0
Nghost:    0 ave 0 max 0 min
Histogram: 1 0 0 0 0 0 0 0 0 0
Neighs:    0 ave 0 max 0 min
Histogram: 1 0 0 0 0 0 0 0 0 0

Total # of neighbors = 0
Ave neighs/atom = 0
Ave special neighs/atom = 0
Neighbor list builds = 0
Dangerous builds = 0
Displacing atoms ...
Neighbor list info ...
  update every 1 steps, delay 10 steps, check yes
  max neighbors/atom: 2000, page size: 100000
  master list distance cutoff = 2.8
  ghost atom cutoff = 2.8
  binsize = 1.4, bins = 29 29 29
  7 neighbor lists, perpetual/occasional/extra = 6 1 0
  (1) pair lj/expand/twopiece, perpetual, skip from (7)
      attributes: half, newton on
      pair build: skip
      stencil: none
      bin: none
  (2) pair lj/twopiece, perpetual, skip from (7)
      attributes: half, newton on
      pair build: skip
      stencil: none
      bin: none
  (3) pair soft/shift, perpetual, skip from (7)
      attributes: half, newton on
      pair build: skip
      stencil: none
      bin: none
  (4) pair zero, perpetual, skip from (7)
      attributes: half, newton on
      pair build: skip
      stencil: none
      bin: none
  (5) pair morse, perpetual, skip from (7)
      attributes: half, newton on
      pair build: skip
      stencil: none
      bin: none
  (6) compute pair/local, occasional, copy from (7)
      attributes: half, newton on
      pair build: copy
      stencil: none
      bin: none
  (7) neighbor class addition, perpetual
      attributes: half, newton on
      pair build: half/bin/newton
      stencil: half/bin/3d/newton
      bin: standard
Setting up Verlet run ...
  Unit style    : lj
  Current step  : 7000
  Time step     : 0.001
Per MPI rank memory allocation (min/avg/max) = 9.833 | 9.833 | 9.833 Mbytes
Step Temp E_pair E_mol TotEng Press 
    7000            0 -0.00075441175            0 -0.00075441175 -4.7132936e-08 
    7200            0 -0.00075441175            0 -0.00075441175 -4.7132936e-08 
    7400            0 -0.00075441175            0 -0.00075441175 -4.7132936e-08 
    7600            0 -0.00075441175            0 -0.00075441175 -4.7132936e-08 
    7800            0 -0.00075441175            0 -0.00075441175 -4.7132936e-08 
    8000            0 -0.00075441175            0 -0.00075441175 -4.7132936e-08 
Loop time of 0.00381207 on 1 procs for 1000 steps with 2 atoms

Performance: 22664823.666 tau/day, 262324.348 timesteps/s
0.0% CPU use with 1 MPI tasks x 1 OpenMP threads

MPI task timing breakdown:
Section |  min time  |  avg time  |  max time  |%varavg| %total
---------------------------------------------------------------
Pair    | 0.00049877 | 0.00049877 | 0.00049877 |   0.0 | 13.08
Bond    | 0.00029969 | 0.00029969 | 0.00029969 |   0.0 |  7.86
Neigh   | 0          | 0          | 0          |   0.0 |  0.00
Comm    | 0.0005312  | 0.0005312  | 0.0005312  |   0.0 | 13.93
Output  | 0.0011225  | 0.0011225  | 0.0011225  |   0.0 | 29.45
Modify  | 0.00051022 | 0.00051022 | 0.00051022 |   0.0 | 13.38
Other   |            | 0.0008497  |            |       | 22.29

Nlocal:    2 ave 2 max 2 min
Histogram: 1 0 0 0 0 0 0 0 0 0
Nghost:    0 ave 0 max 0 min
Histogram: 1 0 0 0 0 0 0 0 0 0
Neighs:    0 ave 0 max 0 min
Histogram: 1 0 0 0 0 0 0 0 0 0

Total # of neighbors = 0
Ave neighs/atom = 0
Ave special neighs/atom = 0
Neighbor list builds = 0
Dangerous builds = 0
Displacing atoms ...
Neighbor list info ...
  update every 1 steps, delay 10 steps, check yes
  max neighbors/atom: 2000, page size: 100000
  master list distance cutoff = 2.8
  ghost atom cutoff = 2.8
  binsize = 1.4, bins = 29 29 29
  7 neighbor lists, perpetual/occasional/extra = 6 1 0
  (1) pair lj/expand/twopiece, perpetual, skip from (7)
      attributes: half, newton on
      pair build: skip
      stencil: none
      bin: none
  (2) pair lj/twopiece, perpetual, skip from (7)
      attributes: half, newton on
      pair build: skip
      stencil: none
      bin: none
  (3) pair soft/shift, perpetual, skip from (7)
      attributes: half, newton on
      pair build: skip
      stencil: none
      bin: none
  (4) pair zero, perpetual, skip from (7)
      attributes: half, newton on
      pair build: skip
      stencil: none
      bin: none
  (5) pair morse, perpetual, skip from (7)
      attributes: half, newton on
      pair build: skip
      stencil: none
      bin: none
  (6) compute pair/local, occasional, copy from (7)
      attributes: half, newton on
      pair build: copy
      stencil: none
      bin: none
  (7) neighbor class addition, perpetual
      attributes: half, newton on
      pair build: half/bin/newton
      stencil: half/bin/3d/newton
      bin: standard
Setting up Verlet run ...
  Unit style    : lj
  Current step  : 8000
  Time step     : 0.001
Per MPI rank memory allocation (min/avg/max) = 9.833 | 9.833 | 9.833 Mbytes
Step Temp E_pair E_mol TotEng Press 
    8000            0 -0.00080494867            0 -0.00080494867 -5.0289027e-08 
    8200            0 -0.00080494867            0 -0.00080494867 -5.0289027e-08 
    8400            0 -0.00080494867            0 -0.00080494867 -5.0289027e-08 
    8600            0 -0.00080494867            0 -0.00080494867 -5.0289027e-08 
    8800            0 -0.00080494867            0 -0.00080494867 -5.0289027e-08 
    9000            0 -0.00080494867            0 -0.00080494867 -5.0289027e-08 
Loop time of 0.0037818 on 1 procs for 1000 steps with 2 atoms

Performance: 22846290.859 tau/day, 264424.663 timesteps/s
0.0% CPU use with 1 MPI tasks x 1 OpenMP threads

MPI task timing breakdown:
Section |  min time  |  avg time  |  max time  |%varavg| %total
---------------------------------------------------------------
Pair    | 0.00049639 | 0.00049639 | 0.00049639 |   0.0 | 13.13
Bond    | 0.00029278 | 0.00029278 | 0.00029278 |   0.0 |  7.74
Neigh   | 0          | 0          | 0          |   0.0 |  0.00
Comm    | 0.00051904 | 0.00051904 | 0.00051904 |   0.0 | 13.72
Output  | 0.0011127  | 0.0011127  | 0.0011127  |   0.0 | 29.42
Modify  | 0.00052238 | 0.00052238 | 0.00052238 |   0.0 | 13.81
Other   |            | 0.0008385  |            |       | 22.17

Nlocal:    2 ave 2 max 2 min
Histogram: 1 0 0 0 0 0 0 0 0 0
Nghost:    0 ave 0 max 0 min
Histogram: 1 0 0 0 0 0 0 0 0 0
Neighs:    0 ave 0 max 0 min
Histogram: 1 0 0 0 0 0 0 0 0 0

Total # of neighbors = 0
Ave neighs/atom = 0
Ave special neighs/atom = 0
Neighbor list builds = 0
Dangerous builds = 0
Displacing atoms ...
Neighbor list info ...
  update every 1 steps, delay 10 steps, check yes
  max neighbors/atom: 2000, page size: 100000
  master list distance cutoff = 2.8
  ghost atom cutoff = 2.8
  binsize = 1.4, bins = 29 29 29
  7 neighbor lists, perpetual/occasional/extra = 6 1 0
  (1) pair lj/expand/twopiece, perpetual, skip from (7)
      attributes: half, newton on
      pair build: skip
      stencil: none
      bin: none
  (2) pair lj/twopiece, perpetual, skip from (7)
      attributes: half, newton on
      pair build: skip
      stencil: none
      bin: none
  (3) pair soft/shift, perpetual, skip from (7)
      attributes: half, newton on
      pair build: skip
      stencil: none
      bin: none
  (4) pair zero, perpetual, skip from (7)
      attributes: half, newton on
      pair build: skip
      stencil: none
      bin: none
  (5) pair morse, perpetual, skip from (7)
      attributes: half, newton on
      pair build: skip
      stencil: none
      bin: none
  (6) compute pair/local, occasional, copy from (7)
      attributes: half, newton on
      pair build: copy
      stencil: none
      bin: none
  (7) neighbor class addition, perpetual
      attributes: half, newton on
      pair build: half/bin/newton
      stencil: half/bin/3d/newton
      bin: standard
Setting up Verlet run ...
  Unit style    : lj
  Current step  : 9000
  Time step     : 0.001
Per MPI rank memory allocation (min/avg/max) = 9.833 | 9.833 | 9.833 Mbytes
Step Temp E_pair E_mol TotEng Press 
    9000            0 -0.00085947835            0 -0.00085947835 -5.3694292e-08 
    9200            0 -0.00085947835            0 -0.00085947835 -5.3694292e-08 
    9400            0 -0.00085947835            0 -0.00085947835 -5.3694292e-08 
    9600            0 -0.00085947835            0 -0.00085947835 -5.3694292e-08 
    9800            0 -0.00085947835            0 -0.00085947835 -5.3694292e-08 
   10000            0 -0.00085947835            0 -0.00085947835 -5.3694292e-08 
Loop time of 0.00427294 on 1 procs for 1000 steps with 2 atoms

Performance: 20220280.415 tau/day, 234031.023 timesteps/s
0.0% CPU use with 1 MPI tasks x 1 OpenMP threads

MPI task timing breakdown:
Section |  min time  |  avg time  |  max time  |%varavg| %total
---------------------------------------------------------------
Pair    | 0.00055432 | 0.00055432 | 0.00055432 |   0.0 | 12.97
Bond    | 0.00030899 | 0.00030899 | 0.00030899 |   0.0 |  7.23
Neigh   | 0          | 0          | 0          |   0.0 |  0.00
Comm    | 0.00056291 | 0.00056291 | 0.00056291 |   0.0 | 13.17
Output  | 0.0014026  | 0.0014026  | 0.0014026  |   0.0 | 32.83
Modify  | 0.00055671 | 0.00055671 | 0.00055671 |   0.0 | 13.03
Other   |            | 0.0008874  |            |       | 20.77

Nlocal:    2 ave 2 max 2 min
Histogram: 1 0 0 0 0 0 0 0 0 0
Nghost:    0 ave 0 max 0 min
Histogram: 1 0 0 0 0 0 0 0 0 0
Neighs:    0 ave 0 max 0 min
Histogram: 1 0 0 0 0 0 0 0 0 0

Total # of neighbors = 0
Ave neighs/atom = 0
Ave special neighs/atom = 0
Neighbor list builds = 0
Dangerous builds = 0
Displacing atoms ...
Neighbor list info ...
  update every 1 steps, delay 10 steps, check yes
  max neighbors/atom: 2000, page size: 100000
  master list distance cutoff = 2.8
  ghost atom cutoff = 2.8
  binsize = 1.4, bins = 29 29 29
  7 neighbor lists, perpetual/occasional/extra = 6 1 0
  (1) pair lj/expand/twopiece, perpetual, skip from (7)
      attributes: half, newton on
      pair build: skip
      stencil: none
      bin: none
  (2) pair lj/twopiece, perpetual, skip from (7)
      attributes: half, newton on
      pair build: skip
      stencil: none
      bin: none
  (3) pair soft/shift, perpetual, skip from (7)
      attributes: half, newton on
      pair build: skip
      stencil: none
      bin: none
  (4) pair zero, perpetual, skip from (7)
      attributes: half, newton on
      pair build: skip
      stencil: none
      bin: none
  (5) pair morse, perpetual, skip from (7)
      attributes: half, newton on
      pair build: skip
      stencil: none
      bin: none
  (6) compute pair/local, occasional, copy from (7)
      attributes: half, newton on
      pair build: copy
      stencil: none
      bin: none
  (7) neighbor class addition, perpetual
      attributes: half, newton on
      pair build: half/bin/newton
      stencil: half/bin/3d/newton
      bin: standard
Setting up Verlet run ...
  Unit style    : lj
  Current step  : 10000
  Time step     : 0.001
Per MPI rank memory allocation (min/avg/max) = 9.833 | 9.833 | 9.833 Mbytes
Step Temp E_pair E_mol TotEng Press 
   10000            0 -0.00091836523            0 -0.00091836523 -5.7371447e-08 
   10200            0 -0.00091836523            0 -0.00091836523 -5.7371447e-08 
   10400            0 -0.00091836523            0 -0.00091836523 -5.7371447e-08 
   10600            0 -0.00091836523            0 -0.00091836523 -5.7371447e-08 
   10800            0 -0.00091836523            0 -0.00091836523 -5.7371447e-08 
   11000            0 -0.00091836523            0 -0.00091836523 -5.7371447e-08 
Loop time of 0.0038929 on 1 procs for 1000 steps with 2 atoms

Performance: 22194259.285 tau/day, 256878.001 timesteps/s
0.0% CPU use with 1 MPI tasks x 1 OpenMP threads

MPI task timing breakdown:
Section |  min time  |  avg time  |  max time  |%varavg| %total
---------------------------------------------------------------
Pair    | 0.00050783 | 0.00050783 | 0.00050783 |   0.0 | 13.05
Bond    | 0.00030136 | 0.00030136 | 0.00030136 |   0.0 |  7.74
Neigh   | 0          | 0          | 0          |   0.0 |  0.00
Comm    | 0.00052261 | 0.00052261 | 0.00052261 |   0.0 | 13.42
Output  | 0.0011945  | 0.0011945  | 0.0011945  |   0.0 | 30.68
Modify  | 0.00056052 | 0.00056052 | 0.00056052 |   0.0 | 14.40
Other   |            | 0.0008061  |            |       | 20.71

Nlocal:    2 ave 2 max 2 min
Histogram: 1 0 0 0 0 0 0 0 0 0
Nghost:    0 ave 0 max 0 min
Histogram: 1 0 0 0 0 0 0 0 0 0
Neighs:    0 ave 0 max 0 min
Histogram: 1 0 0 0 0 0 0 0 0 0

Total # of neighbors = 0
Ave neighs/atom = 0
Ave special neighs/atom = 0
Neighbor list builds = 0
Dangerous builds = 0
Displacing atoms ...
Neighbor list info ...
  update every 1 steps, delay 10 steps, check yes
  max neighbors/atom: 2000, page size: 100000
  master list distance cutoff = 2.8
  ghost atom cutoff = 2.8
  binsize = 1.4, bins = 29 29 29
  7 neighbor lists, perpetual/occasional/extra = 6 1 0
  (1) pair lj/expand/twopiece, perpetual, skip from (7)
      attributes: half, newton on
      pair build: skip
      stencil: none
      bin: none
  (2) pair lj/twopiece, perpetual, skip from (7)
      attributes: half, newton on
      pair build: skip
      stencil: none
      bin: none
  (3) pair soft/shift, perpetual, skip from (7)
      attributes: half, newton on
      pair build: skip
      stencil: none
      bin: none
  (4) pair zero, perpetual, skip from (7)
      attributes: half, newton on
      pair build: skip
      stencil: none
      bin: none
  (5) pair morse, perpetual, skip from (7)
      attributes: half, newton on
      pair build: skip
      stencil: none
      bin: none
  (6) compute pair/local, occasional, copy from (7)
      attributes: half, newton on
      pair build: copy
      stencil: none
      bin: none
  (7) neighbor class addition, perpetual
      attributes: half, newton on
      pair build: half/bin/newton
      stencil: half/bin/3d/newton
      bin: standard
Setting up Verlet run ...
  Unit style    : lj
  Current step  : 11000
  Time step     : 0.001
Per MPI rank memory allocation (min/avg/max) = 9.833 | 9.833 | 9.833 Mbytes
Step Temp E_pair E_mol TotEng Press 
   11000            0 -0.00098201158            0 -0.00098201158 -6.1345558e-08 
   11200            0 -0.00098201158            0 -0.00098201158 -6.1345558e-08 
   11400            0 -0.00098201158            0 -0.00098201158 -6.1345558e-08 
   11600            0 -0.00098201158            0 -0.00098201158 -6.1345558e-08 
   11800            0 -0.00098201158            0 -0.00098201158 -6.1345558e-08 
   12000            0 -0.00098201158            0 -0.00098201158 -6.1345558e-08 
Loop time of 0.00384998 on 1 procs for 1000 steps with 2 atoms

Performance: 22441656.279 tau/day, 259741.392 timesteps/s
405.8% CPU use with 1 MPI tasks x 1 OpenMP threads

MPI task timing breakdown:
Section |  min time  |  avg time  |  max time  |%varavg| %total
---------------------------------------------------------------
Pair    | 0.00048733 | 0.00048733 | 0.00048733 |   0.0 | 12.66
Bond    | 0.00031519 | 0.00031519 | 0.00031519 |   0.0 |  8.19
Neigh   | 0          | 0          | 0          |   0.0 |  0.00
Comm    | 0.00052047 | 0.00052047 | 0.00052047 |   0.0 | 13.52
Output  | 0.0011826  | 0.0011826  | 0.0011826  |   0.0 | 30.72
Modify  | 0.0005033  | 0.0005033  | 0.0005033  |   0.0 | 13.07
Other   |            | 0.0008411  |            |       | 21.85

Nlocal:    2 ave 2 max 2 min
Histogram: 1 0 0 0 0 0 0 0 0 0
Nghost:    0 ave 0 max 0 min
Histogram: 1 0 0 0 0 0 0 0 0 0
Neighs:    0 ave 0 max 0 min
Histogram: 1 0 0 0 0 0 0 0 0 0

Total # of neighbors = 0
Ave neighs/atom = 0
Ave special neighs/atom = 0
Neighbor list builds = 0
Dangerous builds = 0
Displacing atoms ...
Neighbor list info ...
  update every 1 steps, delay 10 steps, check yes
  max neighbors/atom: 2000, page size: 100000
  master list distance cutoff = 2.8
  ghost atom cutoff = 2.8
  binsize = 1.4, bins = 29 29 29
  7 neighbor lists, perpetual/occasional/extra = 6 1 0
  (1) pair lj/expand/twopiece, perpetual, skip from (7)
      attributes: half, newton on
      pair build: skip
      stencil: none
      bin: none
  (2) pair lj/twopiece, perpetual, skip from (7)
      attributes: half, newton on
      pair build: skip
      stencil: none
      bin: none
  (3) pair soft/shift, perpetual, skip from (7)
      attributes: half, newton on
      pair build: skip
      stencil: none
      bin: none
  (4) pair zero, perpetual, skip from (7)
      attributes: half, newton on
      pair build: skip
      stencil: none
      bin: none
  (5) pair morse, perpetual, skip from (7)
      attributes: half, newton on
      pair build: skip
      stencil: none
      bin: none
  (6) compute pair/local, occasional, copy from (7)
      attributes: half, newton on
      pair build: copy
      stencil: none
      bin: none
  (7) neighbor class addition, perpetual
      attributes: half, newton on
      pair build: half/bin/newton
      stencil: half/bin/3d/newton
      bin: standard
Setting up Verlet run ...
  Unit style    : lj
  Current step  : 12000
  Time step     : 0.001
Per MPI rank memory allocation (min/avg/max) = 9.833 | 9.833 | 9.833 Mbytes
Step Temp E_pair E_mol TotEng Press 
   12000            0 -0.0010508619            0 -0.0010508619 -6.5644322e-08 
   12200            0 -0.0010508619            0 -0.0010508619 -6.5644322e-08 
   12400            0 -0.0010508619            0 -0.0010508619 -6.5644322e-08 
   12600            0 -0.0010508619            0 -0.0010508619 -6.5644322e-08 
   12800            0 -0.0010508619            0 -0.0010508619 -6.5644322e-08 
   13000            0 -0.0010508619            0 -0.0010508619 -6.5644322e-08 
Loop time of 0.00376797 on 1 procs for 1000 steps with 2 atoms

Performance: 22930135.763 tau/day, 265395.090 timesteps/s
0.0% CPU use with 1 MPI tasks x 1 OpenMP threads

MPI task timing breakdown:
Section |  min time  |  avg time  |  max time  |%varavg| %total
---------------------------------------------------------------
Pair    | 0.00050068 | 0.00050068 | 0.00050068 |   0.0 | 13.29
Bond    | 0.00029302 | 0.00029302 | 0.00029302 |   0.0 |  7.78
Neigh   | 0          | 0          | 0          |   0.0 |  0.00
Comm    | 0.00051403 | 0.00051403 | 0.00051403 |   0.0 | 13.64
Output  | 0.0010808  | 0.0010808  | 0.0010808  |   0.0 | 28.68
Modify  | 0.00053215 | 0.00053215 | 0.00053215 |   0.0 | 14.12
Other   |            | 0.0008473  |            |       | 22.49

Nlocal:    2 ave 2 max 2 min
Histogram: 1 0 0 0 0 0 0 0 0 0
Nghost:    0 ave 0 max 0 min
Histogram: 1 0 0 0 0 0 0 0 0 0
Neighs:    0 ave 0 max 0 min
Histogram: 1 0 0 0 0 0 0 0 0 0

Total # of neighbors = 0
Ave neighs/atom = 0
Ave special neighs/atom = 0
Neighbor list builds = 0
Dangerous builds = 0
Displacing atoms ...
Neighbor list info ...
  update every 1 steps, delay 10 steps, check yes
  max neighbors/atom: 2000, page size: 100000
  master list distance cutoff = 2.8
  ghost atom cutoff = 2.8
  binsize = 1.4, bins = 29 29 29
  7 neighbor lists, perpetual/occasional/extra = 6 1 0
  (1) pair lj/expand/twopiece, perpetual, skip from (7)
      attributes: half, newton on
      pair build: skip
      stencil: none
      bin: none
  (2) pair lj/twopiece, perpetual, skip from (7)
      attributes: half, newton on
      pair build: skip
      stencil: none
      bin: none
  (3) pair soft/shift, perpetual, skip from (7)
      attributes: half, newton on
      pair build: skip
      stencil: none
      bin: none
  (4) pair zero, perpetual, skip from (7)
      attributes: half, newton on
      pair build: skip
      stencil: none
      bin: none
  (5) pair morse, perpetual, skip from (7)
      attributes: half, newton on
      pair build: skip
      stencil: none
      bin: none
  (6) compute pair/local, occasional, copy from (7)
      attributes: half, newton on
      pair build: copy
      stencil: none
      bin: none
  (7) neighbor class addition, perpetual
      attributes: half, newton on
      pair build: half/bin/newton
      stencil: half/bin/3d/newton
      bin: standard
Setting up Verlet run ...
  Unit style    : lj
  Current step  : 13000
  Time step     : 0.001
Per MPI rank memory allocation (min/avg/max) = 9.833 | 9.833 | 9.833 Mbytes
Step Temp E_pair E_mol TotEng Press 
   13000            0 -0.0011254079            0 -0.0011254079 -7.0298368e-08 
   13200            0 -0.0011254079            0 -0.0011254079 -7.0298368e-08 
   13400            0 -0.0011254079            0 -0.0011254079 -7.0298368e-08 
   13600            0 -0.0011254079            0 -0.0011254079 -7.0298368e-08 
   13800            0 -0.0011254079            0 -0.0011254079 -7.0298368e-08 
   14000            0 -0.0011254079            0 -0.0011254079 -7.0298368e-08 
Loop time of 0.00376296 on 1 procs for 1000 steps with 2 atoms

Performance: 22960645.353 tau/day, 265748.210 timesteps/s
0.0% CPU use with 1 MPI tasks x 1 OpenMP threads

MPI task timing breakdown:
Section |  min time  |  avg time  |  max time  |%varavg| %total
---------------------------------------------------------------
Pair    | 0.00050211 | 0.00050211 | 0.00050211 |   0.0 | 13.34
Bond    | 0.00030136 | 0.00030136 | 0.00030136 |   0.0 |  8.01
Neigh   | 0          | 0          | 0          |   0.0 |  0.00
Comm    | 0.00051522 | 0.00051522 | 0.00051522 |   0.0 | 13.69
Output  | 0.0010934  | 0.0010934  | 0.0010934  |   0.0 | 29.06
Modify  | 0.00053    | 0.00053    | 0.00053    |   0.0 | 14.08
Other   |            | 0.0008209  |            |       | 21.81

Nlocal:    2 ave 2 max 2 min
Histogram: 1 0 0 0 0 0 0 0 0 0
Nghost:    0 ave 0 max 0 min
Histogram: 1 0 0 0 0 0 0 0 0 0
Neighs:    0 ave 0 max 0 min
Histogram: 1 0 0 0 0 0 0 0 0 0

Total # of neighbors = 0
Ave neighs/atom = 0
Ave special neighs/atom = 0
Neighbor list builds = 0
Dangerous builds = 0
Displacing atoms ...
Neighbor list info ...
  update every 1 steps, delay 10 steps, check yes
  max neighbors/atom: 2000, page size: 100000
  master list distance cutoff = 2.8
  ghost atom cutoff = 2.8
  binsize = 1.4, bins = 29 29 29
  7 neighbor lists, perpetual/occasional/extra = 6 1 0
  (1) pair lj/expand/twopiece, perpetual, skip from (7)
      attributes: half, newton on
      pair build: skip
      stencil: none
      bin: none
  (2) pair lj/twopiece, perpetual, skip from (7)
      attributes: half, newton on
      pair build: skip
      stencil: none
      bin: none
  (3) pair soft/shift, perpetual, skip from (7)
      attributes: half, newton on
      pair build: skip
      stencil: none
      bin: none
  (4) pair zero, perpetual, skip from (7)
      attributes: half, newton on
      pair build: skip
      stencil: none
      bin: none
  (5) pair morse, perpetual, skip from (7)
      attributes: half, newton on
      pair build: skip
      stencil: none
      bin: none
  (6) compute pair/local, occasional, copy from (7)
      attributes: half, newton on
      pair build: copy
      stencil: none
      bin: none
  (7) neighbor class addition, perpetual
      attributes: half, newton on
      pair build: half/bin/newton
      stencil: half/bin/3d/newton
      bin: standard
Setting up Verlet run ...
  Unit style    : lj
  Current step  : 14000
  Time step     : 0.001
Per MPI rank memory allocation (min/avg/max) = 9.833 | 9.833 | 9.833 Mbytes
Step Temp E_pair E_mol TotEng Press 
   14000            0 -0.001206194            0 -0.001206194 -7.5341607e-08 
   14200            0 -0.001206194            0 -0.001206194 -7.5341607e-08 
   14400            0 -0.001206194            0 -0.001206194 -7.5341607e-08 
   14600            0 -0.001206194            0 -0.001206194 -7.5341607e-08 
   14800            0 -0.001206194            0 -0.001206194 -7.5341607e-08 
   15000            0 -0.001206194            0 -0.001206194 -7.5341607e-08 
Loop time of 0.00387907 on 1 procs for 1000 steps with 2 atoms

Performance: 22273378.341 tau/day, 257793.731 timesteps/s
0.0% CPU use with 1 MPI tasks x 1 OpenMP threads

MPI task timing breakdown:
Section |  min time  |  avg time  |  max time  |%varavg| %total
---------------------------------------------------------------
Pair    | 0.00052166 | 0.00052166 | 0.00052166 |   0.0 | 13.45
Bond    | 0.0002811  | 0.0002811  | 0.0002811  |   0.0 |  7.25
Neigh   | 0          | 0          | 0          |   0.0 |  0.00
Comm    | 0.00051856 | 0.00051856 | 0.00051856 |   0.0 | 13.37
Output  | 0.0011976  | 0.0011976  | 0.0011976  |   0.0 | 30.87
Modify  | 0.00052571 | 0.00052571 | 0.00052571 |   0.0 | 13.55
Other   |            | 0.0008345  |            |       | 21.51

Nlocal:    2 ave 2 max 2 min
Histogram: 1 0 0 0 0 0 0 0 0 0
Nghost:    0 ave 0 max 0 min
Histogram: 1 0 0 0 0 0 0 0 0 0
Neighs:    0 ave 0 max 0 min
Histogram: 1 0 0 0 0 0 0 0 0 0

Total # of neighbors = 0
Ave neighs/atom = 0
Ave special neighs/atom = 0
Neighbor list builds = 0
Dangerous builds = 0
Displacing atoms ...
Neighbor list info ...
  update every 1 steps, delay 10 steps, check yes
  max neighbors/atom: 2000, page size: 100000
  master list distance cutoff = 2.8
  ghost atom cutoff = 2.8
  binsize = 1.4, bins = 29 29 29
  7 neighbor lists, perpetual/occasional/extra = 6 1 0
  (1) pair lj/expand/twopiece, perpetual, skip from (7)
      attributes: half, newton on
      pair build: skip
      stencil: none
      bin: none
  (2) pair lj/twopiece, perpetual, skip from (7)
      attributes: half, newton on
      pair build: skip
      stencil: none
      bin: none
  (3) pair soft/shift, perpetual, skip from (7)
      attributes: half, newton on
      pair build: skip
      stencil: none
      bin: none
  (4) pair zero, perpetual, skip from (7)
      attributes: half, newton on
      pair build: skip
      stencil: none
      bin: none
  (5) pair morse, perpetual, skip from (7)
      attributes: half, newton on
      pair build: skip
      stencil: none
      bin: none
  (6) compute pair/local, occasional, copy from (7)
      attributes: half, newton on
      pair build: copy
      stencil: none
      bin: none
  (7) neighbor class addition, perpetual
      attributes: half, newton on
      pair build: half/bin/newton
      stencil: half/bin/3d/newton
      bin: standard
Setting up Verlet run ...
  Unit style    : lj
  Current step  : 15000
  Time step     : 0.001
Per MPI rank memory allocation (min/avg/max) = 9.833 | 9.833 | 9.833 Mbytes
Step Temp E_pair E_mol TotEng Press 
   15000            0 -0.0012938242            0 -0.0012938242 -8.0811633e-08 
   15200            0 -0.0012938242            0 -0.0012938242 -8.0811633e-08 
   15400            0 -0.0012938242            0 -0.0012938242 -8.0811633e-08 
   15600            0 -0.0012938242            0 -0.0012938242 -8.0811633e-08 
   15800            0 -0.0012938242            0 -0.0012938242 -8.0811633e-08 
   16000            0 -0.0012938242            0 -0.0012938242 -8.0811633e-08 
Loop time of 0.0038259 on 1 procs for 1000 steps with 2 atoms

Performance: 22582904.319 tau/day, 261376.207 timesteps/s
0.0% CPU use with 1 MPI tasks x 1 OpenMP threads

MPI task timing breakdown:
Section |  min time  |  avg time  |  max time  |%varavg| %total
---------------------------------------------------------------
Pair    | 0.00050187 | 0.00050187 | 0.00050187 |   0.0 | 13.12
Bond    | 0.00029349 | 0.00029349 | 0.00029349 |   0.0 |  7.67
Neigh   | 0          | 0          | 0          |   0.0 |  0.00
Comm    | 0.00052142 | 0.00052142 | 0.00052142 |   0.0 | 13.63
Output  | 0.0011485  | 0.0011485  | 0.0011485  |   0.0 | 30.02
Modify  | 0.00054765 | 0.00054765 | 0.00054765 |   0.0 | 14.31
Other   |            | 0.000813   |            |       | 21.25

Nlocal:    2 ave 2 max 2 min
Histogram: 1 0 0 0 0 0 0 0 0 0
Nghost:    0 ave 0 max 0 min
Histogram: 1 0 0 0 0 0 0 0 0 0
Neighs:    0 ave 0 max 0 min
Histogram: 1 0 0 0 0 0 0 0 0 0

Total # of neighbors = 0
Ave neighs/atom = 0
Ave special neighs/atom = 0
Neighbor list builds = 0
Dangerous builds = 0
Displacing atoms ...
Neighbor list info ...
  update every 1 steps, delay 10 steps, check yes
  max neighbors/atom: 2000, page size: 100000
  master list distance cutoff = 2.8
  ghost atom cutoff = 2.8
  binsize = 1.4, bins = 29 29 29
  7 neighbor lists, perpetual/occasional/extra = 6 1 0
  (1) pair lj/expand/twopiece, perpetual, skip from (7)
      attributes: half, newton on
      pair build: skip
      stencil: none
      bin: none
  (2) pair lj/twopiece, perpetual, skip from (7)
      attributes: half, newton on
      pair build: skip
      stencil: none
      bin: none
  (3) pair soft/shift, perpetual, skip from (7)
      attributes: half, newton on
      pair build: skip
      stencil: none
      bin: none
  (4) pair zero, perpetual, skip from (7)
      attributes: half, newton on
      pair build: skip
      stencil: none
      bin: none
  (5) pair morse, perpetual, skip from (7)
      attributes: half, newton on
      pair build: skip
      stencil: none
      bin: none
  (6) compute pair/local, occasional, copy from (7)
      attributes: half, newton on
      pair build: copy
      stencil: none
      bin: none
  (7) neighbor class addition, perpetual
      attributes: half, newton on
      pair build: half/bin/newton
      stencil: half/bin/3d/newton
      bin: standard
Setting up Verlet run ...
  Unit style    : lj
  Current step  : 16000
  Time step     : 0.001
Per MPI rank memory allocation (min/avg/max) = 9.833 | 9.833 | 9.833 Mbytes
Step Temp E_pair E_mol TotEng Press 
   16000            0 -0.0013889685            0 -0.0013889685 -8.6750161e-08 
   16200            0 -0.0013889685            0 -0.0013889685 -8.6750161e-08 
   16400            0 -0.0013889685            0 -0.0013889685 -8.6750161e-08 
   16600            0 -0.0013889685            0 -0.0013889685 -8.6750161e-08 
   16800            0 -0.0013889685            0 -0.0013889685 -8.6750161e-08 
   17000            0 -0.0013889685            0 -0.0013889685 -8.6750161e-08 
Loop time of 0.003757 on 1 procs for 1000 steps with 2 atoms

Performance: 22997072.319 tau/day, 266169.819 timesteps/s
0.0% CPU use with 1 MPI tasks x 1 OpenMP threads

MPI task timing breakdown:
Section |  min time  |  avg time  |  max time  |%varavg| %total
---------------------------------------------------------------
Pair    | 0.00051332 | 0.00051332 | 0.00051332 |   0.0 | 13.66
Bond    | 0.00029945 | 0.00029945 | 0.00029945 |   0.0 |  7.97
Neigh   | 0          | 0          | 0          |   0.0 |  0.00
Comm    | 0.0005126  | 0.0005126  | 0.0005126  |   0.0 | 13.64
Output  | 0.0010951  | 0.0010951  | 0.0010951  |   0.0 | 29.15
Modify  | 0.00052166 | 0.00052166 | 0.00052166 |   0.0 | 13.89
Other   |            | 0.0008149  |            |       | 21.69

Nlocal:    2 ave 2 max 2 min
Histogram: 1 0 0 0 0 0 0 0 0 0
Nghost:    0 ave 0 max 0 min
Histogram: 1 0 0 0 0 0 0 0 0 0
Neighs:    0 ave 0 max 0 min
Histogram: 1 0 0 0 0 0 0 0 0 0

Total # of neighbors = 0
Ave neighs/atom = 0
Ave special neighs/atom = 0
Neighbor list builds = 0
Dangerous builds = 0
Displacing atoms ...
Neighbor list info ...
  update every 1 steps, delay 10 steps, check yes
  max neighbors/atom: 2000, page size: 100000
  master list distance cutoff = 2.8
  ghost atom cutoff = 2.8
  binsize = 1.4, bins = 29 29 29
  7 neighbor lists, perpetual/occasional/extra = 6 1 0
  (1) pair lj/expand/twopiece, perpetual, skip from (7)
      attributes: half, newton on
      pair build: skip
      stencil: none
      bin: none
  (2) pair lj/twopiece, perpetual, skip from (7)
      attributes: half, newton on
      pair build: skip
      stencil: none
      bin: none
  (3) pair soft/shift, perpetual, skip from (7)
      attributes: half, newton on
      pair build: skip
      stencil: none
      bin: none
  (4) pair zero, perpetual, skip from (7)
      attributes: half, newton on
      pair build: skip
      stencil: none
      bin: none
  (5) pair morse, perpetual, skip from (7)
      attributes: half, newton on
      pair build: skip
      stencil: none
      bin: none
  (6) compute pair/local, occasional, copy from (7)
      attributes: half, newton on
      pair build: copy
      stencil: none
      bin: none
  (7) neighbor class addition, perpetual
      attributes: half, newton on
      pair build: half/bin/newton
      stencil: half/bin/3d/newton
      bin: standard
Setting up Verlet run ...
  Unit style    : lj
  Current step  : 17000
  Time step     : 0.001
Per MPI rank memory allocation (min/avg/max) = 9.833 | 9.833 | 9.833 Mbytes
Step Temp E_pair E_mol TotEng Press 
   17000            0 -0.0014923719            0 -0.0014923719 -9.3203541e-08 
   17200            0 -0.0014923719            0 -0.0014923719 -9.3203541e-08 
   17400            0 -0.0014923719            0 -0.0014923719 -9.3203541e-08 
   17600            0 -0.0014923719            0 -0.0014923719 -9.3203541e-08 
   17800            0 -0.0014923719            0 -0.0014923719 -9.3203541e-08 
   18000            0 -0.0014923719            0 -0.0014923719 -9.3203541e-08 
Loop time of 0.00377703 on 1 procs for 1000 steps with 2 atoms

Performance: 22875133.544 tau/day, 264758.490 timesteps/s
0.0% CPU use with 1 MPI tasks x 1 OpenMP threads

MPI task timing breakdown:
Section |  min time  |  avg time  |  max time  |%varavg| %total
---------------------------------------------------------------
Pair    | 0.00050426 | 0.00050426 | 0.00050426 |   0.0 | 13.35
Bond    | 0.00027966 | 0.00027966 | 0.00027966 |   0.0 |  7.40
Neigh   | 0          | 0          | 0          |   0.0 |  0.00
Comm    | 0.00051069 | 0.00051069 | 0.00051069 |   0.0 | 13.52
Output  | 0.0011015  | 0.0011015  | 0.0011015  |   0.0 | 29.16
Modify  | 0.00051928 | 0.00051928 | 0.00051928 |   0.0 | 13.75
Other   |            | 0.0008616  |            |       | 22.81

Nlocal:    2 ave 2 max 2 min
Histogram: 1 0 0 0 0 0 0 0 0 0
Nghost:    0 ave 0 max 0 min
Histogram: 1 0 0 0 0 0 0 0 0 0
Neighs:    0 ave 0 max 0 min
Histogram: 1 0 0 0 0 0 0 0 0 0

Total # of neighbors = 0
Ave neighs/atom = 0
Ave special neighs/atom = 0
Neighbor list builds = 0
Dangerous builds = 0
Displacing atoms ...
Neighbor list info ...
  update every 1 steps, delay 10 steps, check yes
  max neighbors/atom: 2000, page size: 100000
  master list distance cutoff = 2.8
  ghost atom cutoff = 2.8
  binsize = 1.4, bins = 29 29 29
  7 neighbor lists, perpetual/occasional/extra = 6 1 0
  (1) pair lj/expand/twopiece, perpetual, skip from (7)
      attributes: half, newton on
      pair build: skip
      stencil: none
      bin: none
  (2) pair lj/twopiece, perpetual, skip from (7)
      attributes: half, newton on
      pair build: skip
      stencil: none
      bin: none
  (3) pair soft/shift, perpetual, skip from (7)
      attributes: half, newton on
      pair build: skip
      stencil: none
      bin: none
  (4) pair zero, perpetual, skip from (7)
      attributes: half, newton on
      pair build: skip
      stencil: none
      bin: none
  (5) pair morse, perpetual, skip from (7)
      attributes: half, newton on
      pair build: skip
      stencil: none
      bin: none
  (6) compute pair/local, occasional, copy from (7)
      attributes: half, newton on
      pair build: copy
      stencil: none
      bin: none
  (7) neighbor class addition, perpetual
      attributes: half, newton on
      pair build: half/bin/newton
      stencil: half/bin/3d/newton
      bin: standard
Setting up Verlet run ...
  Unit style    : lj
  Current step  : 18000
  Time step     : 0.001
Per MPI rank memory allocation (min/avg/max) = 9.833 | 9.833 | 9.833 Mbytes
Step Temp E_pair E_mol TotEng Press 
   18000            0 -0.0016048632            0 -0.0016048632 -1.0022333e-07 
   18200            0 -0.0016048632            0 -0.0016048632 -1.0022333e-07 
   18400            0 -0.0016048632            0 -0.0016048632 -1.0022333e-07 
   18600            0 -0.0016048632            0 -0.0016048632 -1.0022333e-07 
   18800            0 -0.0016048632            0 -0.0016048632 -1.0022333e-07 
   19000            0 -0.0016048632            0 -0.0016048632 -1.0022333e-07 
Loop time of 0.00387311 on 1 procs for 1000 steps with 2 atoms

Performance: 22307655.623 tau/day, 258190.459 timesteps/s
0.0% CPU use with 1 MPI tasks x 1 OpenMP threads

MPI task timing breakdown:
Section |  min time  |  avg time  |  max time  |%varavg| %total
---------------------------------------------------------------
Pair    | 0.00050783 | 0.00050783 | 0.00050783 |   0.0 | 13.11
Bond    | 0.00028276 | 0.00028276 | 0.00028276 |   0.0 |  7.30
Neigh   | 0          | 0          | 0          |   0.0 |  0.00
Comm    | 0.00052905 | 0.00052905 | 0.00052905 |   0.0 | 13.66
Output  | 0.0011909  | 0.0011909  | 0.0011909  |   0.0 | 30.75
Modify  | 0.0005424  | 0.0005424  | 0.0005424  |   0.0 | 14.00
Other   |            | 0.0008202  |            |       | 21.18

Nlocal:    2 ave 2 max 2 min
Histogram: 1 0 0 0 0 0 0 0 0 0
Nghost:    0 ave 0 max 0 min
Histogram: 1 0 0 0 0 0 0 0 0 0
Neighs:    0 ave 0 max 0 min
Histogram: 1 0 0 0 0 0 0 0 0 0

Total # of neighbors = 0
Ave neighs/atom = 0
Ave special neighs/atom = 0
Neighbor list builds = 0
Dangerous builds = 0
Displacing atoms ...
Neighbor list info ...
  update every 1 steps, delay 10 steps, check yes
  max neighbors/atom: 2000, page size: 100000
  master list distance cutoff = 2.8
  ghost atom cutoff = 2.8
  binsize = 1.4, bins = 29 29 29
  7 neighbor lists, perpetual/occasional/extra = 6 1 0
  (1) pair lj/expand/twopiece, perpetual, skip from (7)
      attributes: half, newton on
      pair build: skip
      stencil: none
      bin: none
  (2) pair lj/twopiece, perpetual, skip from (7)
      attributes: half, newton on
      pair build: skip
      stencil: none
      bin: none
  (3) pair soft/shift, perpetual, skip from (7)
      attributes: half, newton on
      pair build: skip
      stencil: none
      bin: none
  (4) pair zero, perpetual, skip from (7)
      attributes: half, newton on
      pair build: skip
      stencil: none
      bin: none
  (5) pair morse, perpetual, skip from (7)
      attributes: half, newton on
      pair build: skip
      stencil: none
      bin: none
  (6) compute pair/local, occasional, copy from (7)
      attributes: half, newton on
      pair build: copy
      stencil: none
      bin: none
  (7) neighbor class addition, perpetual
      attributes: half, newton on
      pair build: half/bin/newton
      stencil: half/bin/3d/newton
      bin: standard
Setting up Verlet run ...
  Unit style    : lj
  Current step  : 19000
  Time step     : 0.001
Per MPI rank memory allocation (min/avg/max) = 9.833 | 9.833 | 9.833 Mbytes
Step Temp E_pair E_mol TotEng Press 
   19000            0 -0.001727366            0 -0.001727366 -1.0786697e-07 
   19200            0 -0.001727366            0 -0.001727366 -1.0786697e-07 
   19400            0 -0.001727366            0 -0.001727366 -1.0786697e-07 
   19600            0 -0.001727366            0 -0.001727366 -1.0786697e-07 
   19800            0 -0.001727366            0 -0.001727366 -1.0786697e-07 
   20000            0 -0.001727366            0 -0.001727366 -1.0786697e-07 
Loop time of 0.00374699 on 1 procs for 1000 steps with 2 atoms

Performance: 23058530.517 tau/day, 266881.140 timesteps/s
0.0% CPU use with 1 MPI tasks x 1 OpenMP threads

MPI task timing breakdown:
Section |  min time  |  avg time  |  max time  |%varavg| %total
---------------------------------------------------------------
Pair    | 0.00051761 | 0.00051761 | 0.00051761 |   0.0 | 13.81
Bond    | 0.00029349 | 0.00029349 | 0.00029349 |   0.0 |  7.83
Neigh   | 0          | 0          | 0          |   0.0 |  0.00
Comm    | 0.00052762 | 0.00052762 | 0.00052762 |   0.0 | 14.08
Output  | 0.0010874  | 0.0010874  | 0.0010874  |   0.0 | 29.02
Modify  | 0.0005188  | 0.0005188  | 0.0005188  |   0.0 | 13.85
Other   |            | 0.000802   |            |       | 21.40

Nlocal:    2 ave 2 max 2 min
Histogram: 1 0 0 0 0 0 0 0 0 0
Nghost:    0 ave 0 max 0 min
Histogram: 1 0 0 0 0 0 0 0 0 0
Neighs:    0 ave 0 max 0 min
Histogram: 1 0 0 0 0 0 0 0 0 0

Total # of neighbors = 0
Ave neighs/atom = 0
Ave special neighs/atom = 0
Neighbor list builds = 0
Dangerous builds = 0
Displacing atoms ...
Neighbor list info ...
  update every 1 steps, delay 10 steps, check yes
  max neighbors/atom: 2000, page size: 100000
  master list distance cutoff = 2.8
  ghost atom cutoff = 2.8
  binsize = 1.4, bins = 29 29 29
  7 neighbor lists, perpetual/occasional/extra = 6 1 0
  (1) pair lj/expand/twopiece, perpetual, skip from (7)
      attributes: half, newton on
      pair build: skip
      stencil: none
      bin: none
  (2) pair lj/twopiece, perpetual, skip from (7)
      attributes: half, newton on
      pair build: skip
      stencil: none
      bin: none
  (3) pair soft/shift, perpetual, skip from (7)
      attributes: half, newton on
      pair build: skip
      stencil: none
      bin: none
  (4) pair zero, perpetual, skip from (7)
      attributes: half, newton on
      pair build: skip
      stencil: none
      bin: none
  (5) pair morse, perpetual, skip from (7)
      attributes: half, newton on
      pair build: skip
      stencil: none
      bin: none
  (6) compute pair/local, occasional, copy from (7)
      attributes: half, newton on
      pair build: copy
      stencil: none
      bin: none
  (7) neighbor class addition, perpetual
      attributes: half, newton on
      pair build: half/bin/newton
      stencil: half/bin/3d/newton
      bin: standard
Setting up Verlet run ...
  Unit style    : lj
  Current step  : 20000
  Time step     : 0.001
Per MPI rank memory allocation (min/avg/max) = 9.833 | 9.833 | 9.833 Mbytes
Step Temp E_pair E_mol TotEng Press 
   20000            0 -0.0018609104            0 -0.0018609104 -1.1619848e-07 
   20200            0 -0.0018609104            0 -0.0018609104 -1.1619848e-07 
   20400            0 -0.0018609104            0 -0.0018609104 -1.1619848e-07 
   20600            0 -0.0018609104            0 -0.0018609104 -1.1619848e-07 
   20800            0 -0.0018609104            0 -0.0018609104 -1.1619848e-07 
   21000            0 -0.0018609104            0 -0.0018609104 -1.1619848e-07 
Loop time of 0.00374413 on 1 procs for 1000 steps with 2 atoms

Performance: 23076150.382 tau/day, 267085.074 timesteps/s
0.0% CPU use with 1 MPI tasks x 1 OpenMP threads

MPI task timing breakdown:
Section |  min time  |  avg time  |  max time  |%varavg| %total
---------------------------------------------------------------
Pair    | 0.00051212 | 0.00051212 | 0.00051212 |   0.0 | 13.68
Bond    | 0.00027585 | 0.00027585 | 0.00027585 |   0.0 |  7.37
Neigh   | 0          | 0          | 0          |   0.0 |  0.00
Comm    | 0.00051689 | 0.00051689 | 0.00051689 |   0.0 | 13.81
Output  | 0.0010674  | 0.0010674  | 0.0010674  |   0.0 | 28.51
Modify  | 0.00054359 | 0.00054359 | 0.00054359 |   0.0 | 14.52
Other   |            | 0.0008283  |            |       | 22.12

Nlocal:    2 ave 2 max 2 min
Histogram: 1 0 0 0 0 0 0 0 0 0
Nghost:    0 ave 0 max 0 min
Histogram: 1 0 0 0 0 0 0 0 0 0
Neighs:    0 ave 0 max 0 min
Histogram: 1 0 0 0 0 0 0 0 0 0

Total # of neighbors = 0
Ave neighs/atom = 0
Ave special neighs/atom = 0
Neighbor list builds = 0
Dangerous builds = 0
Displacing atoms ...
Neighbor list info ...
  update every 1 steps, delay 10 steps, check yes
  max neighbors/atom: 2000, page size: 100000
  master list distance cutoff = 2.8
  ghost atom cutoff = 2.8
  binsize = 1.4, bins = 29 29 29
  7 neighbor lists, perpetual/occasional/extra = 6 1 0
  (1) pair lj/expand/twopiece, perpetual, skip from (7)
      attributes: half, newton on
      pair build: skip
      stencil: none
      bin: none
  (2) pair lj/twopiece, perpetual, skip from (7)
      attributes: half, newton on
      pair build: skip
      stencil: none
      bin: none
  (3) pair soft/shift, perpetual, skip from (7)
      attributes: half, newton on
      pair build: skip
      stencil: none
      bin: none
  (4) pair zero, perpetual, skip from (7)
      attributes: half, newton on
      pair build: skip
      stencil: none
      bin: none
  (5) pair morse, perpetual, skip from (7)
      attributes: half, newton on
      pair build: skip
      stencil: none
      bin: none
  (6) compute pair/local, occasional, copy from (7)
      attributes: half, newton on
      pair build: copy
      stencil: none
      bin: none
  (7) neighbor class addition, perpetual
      attributes: half, newton on
      pair build: half/bin/newton
      stencil: half/bin/3d/newton
      bin: standard
Setting up Verlet run ...
  Unit style    : lj
  Current step  : 21000
  Time step     : 0.001
Per MPI rank memory allocation (min/avg/max) = 9.833 | 9.833 | 9.833 Mbytes
Step Temp E_pair E_mol TotEng Press 
   21000            0 -0.0020066476            0 -0.0020066476 -1.2528939e-07 
   21200            0 -0.0020066476            0 -0.0020066476 -1.2528939e-07 
   21400            0 -0.0020066476            0 -0.0020066476 -1.2528939e-07 
   21600            0 -0.0020066476            0 -0.0020066476 -1.2528939e-07 
   21800            0 -0.0020066476            0 -0.0020066476 -1.2528939e-07 
   22000            0 -0.0020066476            0 -0.0020066476 -1.2528939e-07 
Loop time of 0.00377798 on 1 procs for 1000 steps with 2 atoms

Performance: 22869359.182 tau/day, 264691.657 timesteps/s
0.0% CPU use with 1 MPI tasks x 1 OpenMP threads

MPI task timing breakdown:
Section |  min time  |  avg time  |  max time  |%varavg| %total
---------------------------------------------------------------
Pair    | 0.00048399 | 0.00048399 | 0.00048399 |   0.0 | 12.81
Bond    | 0.00029707 | 0.00029707 | 0.00029707 |   0.0 |  7.86
Neigh   | 0          | 0          | 0          |   0.0 |  0.00
Comm    | 0.0005486  | 0.0005486  | 0.0005486  |   0.0 | 14.52
Output  | 0.0010898  | 0.0010898  | 0.0010898  |   0.0 | 28.85
Modify  | 0.00053287 | 0.00053287 | 0.00053287 |   0.0 | 14.10
Other   |            | 0.0008256  |            |       | 21.85

Nlocal:    2 ave 2 max 2 min
Histogram: 1 0 0 0 0 0 0 0 0 0
Nghost:    0 ave 0 max 0 min
Histogram: 1 0 0 0 0 0 0 0 0 0
Neighs:    0 ave 0 max 0 min
Histogram: 1 0 0 0 0 0 0 0 0 0

Total # of neighbors = 0
Ave neighs/atom = 0
Ave special neighs/atom = 0
Neighbor list builds = 0
Dangerous builds = 0
Displacing atoms ...
Neighbor list info ...
  update every 1 steps, delay 10 steps, check yes
  max neighbors/atom: 2000, page size: 100000
  master list distance cutoff = 2.8
  ghost atom cutoff = 2.8
  binsize = 1.4, bins = 29 29 29
  7 neighbor lists, perpetual/occasional/extra = 6 1 0
  (1) pair lj/expand/twopiece, perpetual, skip from (7)
      attributes: half, newton on
      pair build: skip
      stencil: none
      bin: none
  (2) pair lj/twopiece, perpetual, skip from (7)
      attributes: half, newton on
      pair build: skip
      stencil: none
      bin: none
  (3) pair soft/shift, perpetual, skip from (7)
      attributes: half, newton on
      pair build: skip
      stencil: none
      bin: none
  (4) pair zero, perpetual, skip from (7)
      attributes: half, newton on
      pair build: skip
      stencil: none
      bin: none
  (5) pair morse, perpetual, skip from (7)
      attributes: half, newton on
      pair build: skip
      stencil: none
      bin: none
  (6) compute pair/local, occasional, copy from (7)
      attributes: half, newton on
      pair build: copy
      stencil: none
      bin: none
  (7) neighbor class addition, perpetual
      attributes: half, newton on
      pair build: half/bin/newton
      stencil: half/bin/3d/newton
      bin: standard
Setting up Verlet run ...
  Unit style    : lj
  Current step  : 22000
  Time step     : 0.001
Per MPI rank memory allocation (min/avg/max) = 9.833 | 9.833 | 9.833 Mbytes
Step Temp E_pair E_mol TotEng Press 
   22000            0 -0.0021658649            0 -0.0021658649 -1.3521964e-07 
   22200            0 -0.0021658649            0 -0.0021658649 -1.3521964e-07 
   22400            0 -0.0021658649            0 -0.0021658649 -1.3521964e-07 
   22600            0 -0.0021658649            0 -0.0021658649 -1.3521964e-07 
   22800            0 -0.0021658649            0 -0.0021658649 -1.3521964e-07 
   23000            0 -0.0021658649            0 -0.0021658649 -1.3521964e-07 
Loop time of 0.00385809 on 1 procs for 1000 steps with 2 atoms

Performance: 22394504.116 tau/day, 259195.649 timesteps/s
405.0% CPU use with 1 MPI tasks x 1 OpenMP threads

MPI task timing breakdown:
Section |  min time  |  avg time  |  max time  |%varavg| %total
---------------------------------------------------------------
Pair    | 0.00048995 | 0.00048995 | 0.00048995 |   0.0 | 12.70
Bond    | 0.00030136 | 0.00030136 | 0.00030136 |   0.0 |  7.81
Neigh   | 0          | 0          | 0          |   0.0 |  0.00
Comm    | 0.00052261 | 0.00052261 | 0.00052261 |   0.0 | 13.55
Output  | 0.0011828  | 0.0011828  | 0.0011828  |   0.0 | 30.66
Modify  | 0.00052094 | 0.00052094 | 0.00052094 |   0.0 | 13.50
Other   |            | 0.0008404  |            |       | 21.78

Nlocal:    2 ave 2 max 2 min
Histogram: 1 0 0 0 0 0 0 0 0 0
Nghost:    0 ave 0 max 0 min
Histogram: 1 0 0 0 0 0 0 0 0 0
Neighs:    0 ave 0 max 0 min
Histogram: 1 0 0 0 0 0 0 0 0 0

Total # of neighbors = 0
Ave neighs/atom = 0
Ave special neighs/atom = 0
Neighbor list builds = 0
Dangerous builds = 0
Displacing atoms ...
Neighbor list info ...
  update every 1 steps, delay 10 steps, check yes
  max neighbors/atom: 2000, page size: 100000
  master list distance cutoff = 2.8
  ghost atom cutoff = 2.8
  binsize = 1.4, bins = 29 29 29
  7 neighbor lists, perpetual/occasional/extra = 6 1 0
  (1) pair lj/expand/twopiece, perpetual, skip from (7)
      attributes: half, newton on
      pair build: skip
      stencil: none
      bin: none
  (2) pair lj/twopiece, perpetual, skip from (7)
      attributes: half, newton on
      pair build: skip
      stencil: none
      bin: none
  (3) pair soft/shift, perpetual, skip from (7)
      attributes: half, newton on
      pair build: skip
      stencil: none
      bin: none
  (4) pair zero, perpetual, skip from (7)
      attributes: half, newton on
      pair build: skip
      stencil: none
      bin: none
  (5) pair morse, perpetual, skip from (7)
      attributes: half, newton on
      pair build: skip
      stencil: none
      bin: none
  (6) compute pair/local, occasional, copy from (7)
      attributes: half, newton on
      pair build: copy
      stencil: none
      bin: none
  (7) neighbor class addition, perpetual
      attributes: half, newton on
      pair build: half/bin/newton
      stencil: half/bin/3d/newton
      bin: standard
Setting up Verlet run ...
  Unit style    : lj
  Current step  : 23000
  Time step     : 0.001
Per MPI rank memory allocation (min/avg/max) = 9.833 | 9.833 | 9.833 Mbytes
Step Temp E_pair E_mol TotEng Press 
   23000            0 -0.0023400044            0 -0.0023400044 -1.4607876e-07 
   23200            0 -0.0023400044            0 -0.0023400044 -1.4607876e-07 
   23400            0 -0.0023400044            0 -0.0023400044 -1.4607876e-07 
   23600            0 -0.0023400044            0 -0.0023400044 -1.4607876e-07 
   23800            0 -0.0023400044            0 -0.0023400044 -1.4607876e-07 
   24000            0 -0.0023400044            0 -0.0023400044 -1.4607876e-07 
Loop time of 0.00375199 on 1 procs for 1000 steps with 2 atoms

Performance: 23027760.412 tau/day, 266525.005 timesteps/s
0.0% CPU use with 1 MPI tasks x 1 OpenMP threads

MPI task timing breakdown:
Section |  min time  |  avg time  |  max time  |%varavg| %total
---------------------------------------------------------------
Pair    | 0.00051713 | 0.00051713 | 0.00051713 |   0.0 | 13.78
Bond    | 0.00029278 | 0.00029278 | 0.00029278 |   0.0 |  7.80
Neigh   | 0          | 0          | 0          |   0.0 |  0.00
Comm    | 0.00049782 | 0.00049782 | 0.00049782 |   0.0 | 13.27
Output  | 0.0010931  | 0.0010931  | 0.0010931  |   0.0 | 29.14
Modify  | 0.00052118 | 0.00052118 | 0.00052118 |   0.0 | 13.89
Other   |            | 0.0008299  |            |       | 22.12

Nlocal:    2 ave 2 max 2 min
Histogram: 1 0 0 0 0 0 0 0 0 0
Nghost:    0 ave 0 max 0 min
Histogram: 1 0 0 0 0 0 0 0 0 0
Neighs:    0 ave 0 max 0 min
Histogram: 1 0 0 0 0 0 0 0 0 0

Total # of neighbors = 0
Ave neighs/atom = 0
Ave special neighs/atom = 0
Neighbor list builds = 0
Dangerous builds = 0
Displacing atoms ...
Neighbor list info ...
  update every 1 steps, delay 10 steps, check yes
  max neighbors/atom: 2000, page size: 100000
  master list distance cutoff = 2.8
  ghost atom cutoff = 2.8
  binsize = 1.4, bins = 29 29 29
  7 neighbor lists, perpetual/occasional/extra = 6 1 0
  (1) pair lj/expand/twopiece, perpetual, skip from (7)
      attributes: half, newton on
      pair build: skip
      stencil: none
      bin: none
  (2) pair lj/twopiece, perpetual, skip from (7)
      attributes: half, newton on
      pair build: skip
      stencil: none
      bin: none
  (3) pair soft/shift, perpetual, skip from (7)
      attributes: half, newton on
      pair build: skip
      stencil: none
      bin: none
  (4) pair zero, perpetual, skip from (7)
      attributes: half, newton on
      pair build: skip
      stencil: none
      bin: none
  (5) pair morse, perpetual, skip from (7)
      attributes: half, newton on
      pair build: skip
      stencil: none
      bin: none
  (6) compute pair/local, occasional, copy from (7)
      attributes: half, newton on
      pair build: copy
      stencil: none
      bin: none
  (7) neighbor class addition, perpetual
      attributes: half, newton on
      pair build: half/bin/newton
      stencil: half/bin/3d/newton
      bin: standard
Setting up Verlet run ...
  Unit style    : lj
  Current step  : 24000
  Time step     : 0.001
Per MPI rank memory allocation (min/avg/max) = 9.833 | 9.833 | 9.833 Mbytes
Step Temp E_pair E_mol TotEng Press 
   24000            0 -0.002530684            0 -0.002530684 -1.579671e-07 
   24200            0 -0.002530684            0 -0.002530684 -1.579671e-07 
   24400            0 -0.002530684            0 -0.002530684 -1.579671e-07 
   24600            0 -0.002530684            0 -0.002530684 -1.579671e-07 
   24800            0 -0.002530684            0 -0.002530684 -1.579671e-07 
   25000            0 -0.002530684            0 -0.002530684 -1.579671e-07 
Loop time of 0.00378108 on 1 procs for 1000 steps with 2 atoms

Performance: 22850612.624 tau/day, 264474.683 timesteps/s
0.0% CPU use with 1 MPI tasks x 1 OpenMP threads

MPI task timing breakdown:
Section |  min time  |  avg time  |  max time  |%varavg| %total
---------------------------------------------------------------
Pair    | 0.00048566 | 0.00048566 | 0.00048566 |   0.0 | 12.84
Bond    | 0.00030303 | 0.00030303 | 0.00030303 |   0.0 |  8.01
Neigh   | 0          | 0          | 0          |   0.0 |  0.00
Comm    | 0.00052857 | 0.00052857 | 0.00052857 |   0.0 | 13.98
Output  | 0.0011139  | 0.0011139  | 0.0011139  |   0.0 | 29.46
Modify  | 0.0004878  | 0.0004878  | 0.0004878  |   0.0 | 12.90
Other   |            | 0.0008621  |            |       | 22.80

Nlocal:    2 ave 2 max 2 min
Histogram: 1 0 0 0 0 0 0 0 0 0
Nghost:    0 ave 0 max 0 min
Histogram: 1 0 0 0 0 0 0 0 0 0
Neighs:    0 ave 0 max 0 min
Histogram: 1 0 0 0 0 0 0 0 0 0

Total # of neighbors = 0
Ave neighs/atom = 0
Ave special neighs/atom = 0
Neighbor list builds = 0
Dangerous builds = 0
Displacing atoms ...
Neighbor list info ...
  update every 1 steps, delay 10 steps, check yes
  max neighbors/atom: 2000, page size: 100000
  master list distance cutoff = 2.8
  ghost atom cutoff = 2.8
  binsize = 1.4, bins = 29 29 29
  7 neighbor lists, perpetual/occasional/extra = 6 1 0
  (1) pair lj/expand/twopiece, perpetual, skip from (7)
      attributes: half, newton on
      pair build: skip
      stencil: none
      bin: none
  (2) pair lj/twopiece, perpetual, skip from (7)
      attributes: half, newton on
      pair build: skip
      stencil: none
      bin: none
  (3) pair soft/shift, perpetual, skip from (7)
      attributes: half, newton on
      pair build: skip
      stencil: none
      bin: none
  (4) pair zero, perpetual, skip from (7)
      attributes: half, newton on
      pair build: skip
      stencil: none
      bin: none
  (5) pair morse, perpetual, skip from (7)
      attributes: half, newton on
      pair build: skip
      stencil: none
      bin: none
  (6) compute pair/local, occasional, copy from (7)
      attributes: half, newton on
      pair build: copy
      stencil: none
      bin: none
  (7) neighbor class addition, perpetual
      attributes: half, newton on
      pair build: half/bin/newton
      stencil: half/bin/3d/newton
      bin: standard
Setting up Verlet run ...
  Unit style    : lj
  Current step  : 25000
  Time step     : 0.001
Per MPI rank memory allocation (min/avg/max) = 9.833 | 9.833 | 9.833 Mbytes
Step Temp E_pair E_mol TotEng Press 
   25000            0 -0.0027397209            0 -0.0027397209 -1.7099734e-07 
   25200            0 -0.0027397209            0 -0.0027397209 -1.7099734e-07 
   25400            0 -0.0027397209            0 -0.0027397209 -1.7099734e-07 
   25600            0 -0.0027397209            0 -0.0027397209 -1.7099734e-07 
   25800            0 -0.0027397209            0 -0.0027397209 -1.7099734e-07 
   26000            0 -0.0027397209            0 -0.0027397209 -1.7099734e-07 
Loop time of 0.00381804 on 1 procs for 1000 steps with 2 atoms

Performance: 22629440.839 tau/day, 261914.825 timesteps/s
0.0% CPU use with 1 MPI tasks x 1 OpenMP threads

MPI task timing breakdown:
Section |  min time  |  avg time  |  max time  |%varavg| %total
---------------------------------------------------------------
Pair    | 0.00052905 | 0.00052905 | 0.00052905 |   0.0 | 13.86
Bond    | 0.00028729 | 0.00028729 | 0.00028729 |   0.0 |  7.52
Neigh   | 0          | 0          | 0          |   0.0 |  0.00
Comm    | 0.00051546 | 0.00051546 | 0.00051546 |   0.0 | 13.50
Output  | 0.0011325  | 0.0011325  | 0.0011325  |   0.0 | 29.66
Modify  | 0.0005219  | 0.0005219  | 0.0005219  |   0.0 | 13.67
Other   |            | 0.0008318  |            |       | 21.79

Nlocal:    2 ave 2 max 2 min
Histogram: 1 0 0 0 0 0 0 0 0 0
Nghost:    0 ave 0 max 0 min
Histogram: 1 0 0 0 0 0 0 0 0 0
Neighs:    0 ave 0 max 0 min
Histogram: 1 0 0 0 0 0 0 0 0 0

Total # of neighbors = 0
Ave neighs/atom = 0
[...]
      bin: standard
Setting up Verlet run ...
  Unit style    : lj
  Current step  : 74000
  Time step     : 0.001
Per MPI rank memory allocation (min/avg/max) = 9.833 | 9.833 | 9.833 Mbytes
Step Temp E_pair E_mol TotEng Press 
   74000            0  -0.33143495            0  -0.33143495 5.7359947e-05 
   74200            0  -0.33143495            0  -0.33143495 5.7359947e-05 
   74400            0  -0.33143495            0  -0.33143495 5.7359947e-05 
   74600            0  -0.33143495            0  -0.33143495 5.7359947e-05 
   74800            0  -0.33143495            0  -0.33143495 5.7359947e-05 
   75000            0  -0.33143495            0  -0.33143495 5.7359947e-05 
Loop time of 0.00381279 on 1 procs for 1000 steps with 2 atoms

Performance: 22660571.886 tau/day, 262275.138 timesteps/s
0.0% CPU use with 1 MPI tasks x 1 OpenMP threads

MPI task timing breakdown:
Section |  min time  |  avg time  |  max time  |%varavg| %total
---------------------------------------------------------------
Pair    | 0.00050282 | 0.00050282 | 0.00050282 |   0.0 | 13.19
Bond    | 0.00028086 | 0.00028086 | 0.00028086 |   0.0 |  7.37
Neigh   | 0          | 0          | 0          |   0.0 |  0.00
Comm    | 0.00052643 | 0.00052643 | 0.00052643 |   0.0 | 13.81
Output  | 0.0011303  | 0.0011303  | 0.0011303  |   0.0 | 29.65
Modify  | 0.00052738 | 0.00052738 | 0.00052738 |   0.0 | 13.83
Other   |            | 0.000845   |            |       | 22.16

Nlocal:    2 ave 2 max 2 min
Histogram: 1 0 0 0 0 0 0 0 0 0
Nghost:    0 ave 0 max 0 min
Histogram: 1 0 0 0 0 0 0 0 0 0
Neighs:    0 ave 0 max 0 min
Histogram: 1 0 0 0 0 0 0 0 0 0

Total # of neighbors = 0
Ave neighs/atom = 0
Ave special neighs/atom = 0
Neighbor list builds = 0
Dangerous builds = 0
Displacing atoms ...
Neighbor list info ...
  update every 1 steps, delay 10 steps, check yes
  max neighbors/atom: 2000, page size: 100000
  master list distance cutoff = 2.8
  ghost atom cutoff = 2.8
  binsize = 1.4, bins = 29 29 29
  7 neighbor lists, perpetual/occasional/extra = 6 1 0
  (1) pair lj/expand/twopiece, perpetual, skip from (7)
      attributes: half, newton on
      pair build: skip
      stencil: none
      bin: none
  (2) pair lj/twopiece, perpetual, skip from (7)
      attributes: half, newton on
      pair build: skip
      stencil: none
      bin: none
  (3) pair soft/shift, perpetual, skip from (7)
      attributes: half, newton on
      pair build: skip
      stencil: none
      bin: none
  (4) pair zero, perpetual, skip from (7)
      attributes: half, newton on
      pair build: skip
      stencil: none
      bin: none
  (5) pair morse, perpetual, skip from (7)
      attributes: half, newton on
      pair build: skip
      stencil: none
      bin: none
  (6) compute pair/local, occasional, copy from (7)
      attributes: half, newton on
      pair build: copy
      stencil: none
      bin: none
  (7) neighbor class addition, perpetual
      attributes: half, newton on
      pair build: half/bin/newton
      stencil: half/bin/3d/newton
      bin: standard
Setting up Verlet run ...
  Unit style    : lj
  Current step  : 75000
  Time step     : 0.001
Per MPI rank memory allocation (min/avg/max) = 9.833 | 9.833 | 9.833 Mbytes
Step Temp E_pair E_mol TotEng Press 
   75000            0 3.1974423e-14            0 3.1974423e-14     0.000125 
   75200            0 3.1974423e-14            0 3.1974423e-14     0.000125 
   75400            0 3.1974423e-14            0 3.1974423e-14     0.000125 
   75600            0 3.1974423e-14            0 3.1974423e-14     0.000125 
   75800            0 3.1974423e-14            0 3.1974423e-14     0.000125 
   76000            0 3.1974423e-14            0 3.1974423e-14     0.000125 
Loop time of 0.00400686 on 1 procs for 1000 steps with 2 atoms

Performance: 21563005.212 tau/day, 249571.820 timesteps/s
0.0% CPU use with 1 MPI tasks x 1 OpenMP threads

MPI task timing breakdown:
Section |  min time  |  avg time  |  max time  |%varavg| %total
---------------------------------------------------------------
Pair    | 0.00052953 | 0.00052953 | 0.00052953 |   0.0 | 13.22
Bond    | 0.00030231 | 0.00030231 | 0.00030231 |   0.0 |  7.54
Neigh   | 0          | 0          | 0          |   0.0 |  0.00
Comm    | 0.00051594 | 0.00051594 | 0.00051594 |   0.0 | 12.88
Output  | 0.0012755  | 0.0012755  | 0.0012755  |   0.0 | 31.83
Modify  | 0.00053692 | 0.00053692 | 0.00053692 |   0.0 | 13.40
Other   |            | 0.0008466  |            |       | 21.13

Nlocal:    2 ave 2 max 2 min
Histogram: 1 0 0 0 0 0 0 0 0 0
Nghost:    0 ave 0 max 0 min
Histogram: 1 0 0 0 0 0 0 0 0 0
Neighs:    0 ave 0 max 0 min
Histogram: 1 0 0 0 0 0 0 0 0 0

Total # of neighbors = 0
Ave neighs/atom = 0
Ave special neighs/atom = 0
Neighbor list builds = 0
Dangerous builds = 0
Displacing atoms ...
Neighbor list info ...
  update every 1 steps, delay 10 steps, check yes
  max neighbors/atom: 2000, page size: 100000
  master list distance cutoff = 2.8
  ghost atom cutoff = 2.8
  binsize = 1.4, bins = 29 29 29
  7 neighbor lists, perpetual/occasional/extra = 6 1 0
  (1) pair lj/expand/twopiece, perpetual, skip from (7)
      attributes: half, newton on
      pair build: skip
      stencil: none
      bin: none
  (2) pair lj/twopiece, perpetual, skip from (7)
      attributes: half, newton on
      pair build: skip
      stencil: none
      bin: none
  (3) pair soft/shift, perpetual, skip from (7)
      attributes: half, newton on
      pair build: skip
      stencil: none
      bin: none
  (4) pair zero, perpetual, skip from (7)
      attributes: half, newton on
      pair build: skip
      stencil: none
      bin: none
  (5) pair morse, perpetual, skip from (7)
      attributes: half, newton on
      pair build: skip
      stencil: none
      bin: none
  (6) compute pair/local, occasional, copy from (7)
      attributes: half, newton on
      pair build: copy
      stencil: none
      bin: none
  (7) neighbor class addition, perpetual
      attributes: half, newton on
      pair build: half/bin/newton
      stencil: half/bin/3d/newton
      bin: standard
Setting up Verlet run ...
  Unit style    : lj
  Current step  : 76000
  Time step     : 0.001
Per MPI rank memory allocation (min/avg/max) = 9.833 | 9.833 | 9.833 Mbytes
Step Temp E_pair E_mol TotEng Press 
   76000            0   0.70911947            0   0.70911947 0.00024833173 
   76200            0   0.70911947            0   0.70911947 0.00024833173 
   76400            0   0.70911947            0   0.70911947 0.00024833173 
   76600            0   0.70911947            0   0.70911947 0.00024833173 
   76800            0   0.70911947            0   0.70911947 0.00024833173 
   77000            0   0.70911947            0   0.70911947 0.00024833173 
Loop time of 0.00383592 on 1 procs for 1000 steps with 2 atoms

Performance: 22523952.116 tau/day, 260693.890 timesteps/s
0.0% CPU use with 1 MPI tasks x 1 OpenMP threads

MPI task timing breakdown:
Section |  min time  |  avg time  |  max time  |%varavg| %total
---------------------------------------------------------------
Pair    | 0.00052857 | 0.00052857 | 0.00052857 |   0.0 | 13.78
Bond    | 0.00029349 | 0.00029349 | 0.00029349 |   0.0 |  7.65
Neigh   | 0          | 0          | 0          |   0.0 |  0.00
Comm    | 0.00051832 | 0.00051832 | 0.00051832 |   0.0 | 13.51
Output  | 0.0011344  | 0.0011344  | 0.0011344  |   0.0 | 29.57
Modify  | 0.00051975 | 0.00051975 | 0.00051975 |   0.0 | 13.55
Other   |            | 0.0008414  |            |       | 21.93

Nlocal:    2 ave 2 max 2 min
Histogram: 1 0 0 0 0 0 0 0 0 0
Nghost:    0 ave 0 max 0 min
Histogram: 1 0 0 0 0 0 0 0 0 0
Neighs:    0 ave 0 max 0 min
Histogram: 1 0 0 0 0 0 0 0 0 0

Total # of neighbors = 0
Ave neighs/atom = 0
Ave special neighs/atom = 0
Neighbor list builds = 0
Dangerous builds = 0
Displacing atoms ...
Neighbor list info ...
  update every 1 steps, delay 10 steps, check yes
  max neighbors/atom: 2000, page size: 100000
  master list distance cutoff = 2.8
  ghost atom cutoff = 2.8
  binsize = 1.4, bins = 29 29 29
  7 neighbor lists, perpetual/occasional/extra = 6 1 0
  (1) pair lj/expand/twopiece, perpetual, skip from (7)
      attributes: half, newton on
      pair build: skip
      stencil: none
      bin: none
  (2) pair lj/twopiece, perpetual, skip from (7)
      attributes: half, newton on
      pair build: skip
      stencil: none
      bin: none
  (3) pair soft/shift, perpetual, skip from (7)
      attributes: half, newton on
      pair build: skip
      stencil: none
      bin: none
  (4) pair zero, perpetual, skip from (7)
      attributes: half, newton on
      pair build: skip
      stencil: none
      bin: none
  (5) pair morse, perpetual, skip from (7)
      attributes: half, newton on
      pair build: skip
      stencil: none
      bin: none
  (6) compute pair/local, occasional, copy from (7)
      attributes: half, newton on
      pair build: copy
      stencil: none
      bin: none
  (7) neighbor class addition, perpetual
      attributes: half, newton on
      pair build: half/bin/newton
      stencil: half/bin/3d/newton
      bin: standard
Setting up Verlet run ...
  Unit style    : lj
  Current step  : 77000
  Time step     : 0.001
Per MPI rank memory allocation (min/avg/max) = 9.833 | 9.833 | 9.833 Mbytes
Step Temp E_pair E_mol TotEng Press 
   77000            0    2.1413162            0    2.1413162 0.00047381439 
   77200            0    2.1413162            0    2.1413162 0.00047381439 
   77400            0    2.1413162            0    2.1413162 0.00047381439 
   77600            0    2.1413162            0    2.1413162 0.00047381439 
   77800            0    2.1413162            0    2.1413162 0.00047381439 
   78000            0    2.1413162            0    2.1413162 0.00047381439 
Loop time of 0.00379395 on 1 procs for 1000 steps with 2 atoms

Performance: 22773070.169 tau/day, 263577.201 timesteps/s
411.8% CPU use with 1 MPI tasks x 1 OpenMP threads

MPI task timing breakdown:
Section |  min time  |  avg time  |  max time  |%varavg| %total
---------------------------------------------------------------
Pair    | 0.00051141 | 0.00051141 | 0.00051141 |   0.0 | 13.48
Bond    | 0.00029755 | 0.00029755 | 0.00029755 |   0.0 |  7.84
Neigh   | 0          | 0          | 0          |   0.0 |  0.00
Comm    | 0.00051856 | 0.00051856 | 0.00051856 |   0.0 | 13.67
Output  | 0.0011144  | 0.0011144  | 0.0011144  |   0.0 | 29.37
Modify  | 0.00052428 | 0.00052428 | 0.00052428 |   0.0 | 13.82
Other   |            | 0.0008278  |            |       | 21.82

Nlocal:    2 ave 2 max 2 min
Histogram: 1 0 0 0 0 0 0 0 0 0
Nghost:    0 ave 0 max 0 min
Histogram: 1 0 0 0 0 0 0 0 0 0
Neighs:    0 ave 0 max 0 min
Histogram: 1 0 0 0 0 0 0 0 0 0

Total # of neighbors = 0
Ave neighs/atom = 0
Ave special neighs/atom = 0
Neighbor list builds = 0
Dangerous builds = 0
Displacing atoms ...
Neighbor list info ...
  update every 1 steps, delay 10 steps, check yes
  max neighbors/atom: 2000, page size: 100000
  master list distance cutoff = 2.8
  ghost atom cutoff = 2.8
  binsize = 1.4, bins = 29 29 29
  7 neighbor lists, perpetual/occasional/extra = 6 1 0
  (1) pair lj/expand/twopiece, perpetual, skip from (7)
      attributes: half, newton on
      pair build: skip
      stencil: none
      bin: none
  (2) pair lj/twopiece, perpetual, skip from (7)
      attributes: half, newton on
      pair build: skip
      stencil: none
      bin: none
  (3) pair soft/shift, perpetual, skip from (7)
      attributes: half, newton on
      pair build: skip
      stencil: none
      bin: none
  (4) pair zero, perpetual, skip from (7)
      attributes: half, newton on
      pair build: skip
      stencil: none
      bin: none
  (5) pair morse, perpetual, skip from (7)
      attributes: half, newton on
      pair build: skip
      stencil: none
      bin: none
  (6) compute pair/local, occasional, copy from (7)
      attributes: half, newton on
      pair build: copy
      stencil: none
      bin: none
  (7) neighbor class addition, perpetual
      attributes: half, newton on
      pair build: half/bin/newton
      stencil: half/bin/3d/newton
      bin: standard
Setting up Verlet run ...
  Unit style    : lj
  Current step  : 78000
  Time step     : 0.001
Per MPI rank memory allocation (min/avg/max) = 9.833 | 9.833 | 9.833 Mbytes
Step Temp E_pair E_mol TotEng Press 
   78000            0     4.966783            0     4.966783 0.00089001002 
   78200            0     4.966783            0     4.966783 0.00089001002 
   78400            0     4.966783            0     4.966783 0.00089001002 
   78600            0     4.966783            0     4.966783 0.00089001002 
   78800            0     4.966783            0     4.966783 0.00089001002 
   79000            0     4.966783            0     4.966783 0.00089001002 
Loop time of 0.00384688 on 1 procs for 1000 steps with 2 atoms

Performance: 22459737.564 tau/day, 259950.666 timesteps/s
0.0% CPU use with 1 MPI tasks x 1 OpenMP threads

MPI task timing breakdown:
Section |  min time  |  avg time  |  max time  |%varavg| %total
---------------------------------------------------------------
Pair    | 0.00049877 | 0.00049877 | 0.00049877 |   0.0 | 12.97
Bond    | 0.00030398 | 0.00030398 | 0.00030398 |   0.0 |  7.90
Neigh   | 0          | 0          | 0          |   0.0 |  0.00
Comm    | 0.00052524 | 0.00052524 | 0.00052524 |   0.0 | 13.65
Output  | 0.0011642  | 0.0011642  | 0.0011642  |   0.0 | 30.26
Modify  | 0.00051975 | 0.00051975 | 0.00051975 |   0.0 | 13.51
Other   |            | 0.0008349  |            |       | 21.70

Nlocal:    2 ave 2 max 2 min
Histogram: 1 0 0 0 0 0 0 0 0 0
Nghost:    0 ave 0 max 0 min
Histogram: 1 0 0 0 0 0 0 0 0 0
Neighs:    0 ave 0 max 0 min
Histogram: 1 0 0 0 0 0 0 0 0 0

Total # of neighbors = 0
Ave neighs/atom = 0
Ave special neighs/atom = 0
Neighbor list builds = 0
Dangerous builds = 0
Displacing atoms ...
Neighbor list info ...
  update every 1 steps, delay 10 steps, check yes
  max neighbors/atom: 2000, page size: 100000
  master list distance cutoff = 2.8
  ghost atom cutoff = 2.8
  binsize = 1.4, bins = 29 29 29
  7 neighbor lists, perpetual/occasional/extra = 6 1 0
  (1) pair lj/expand/twopiece, perpetual, skip from (7)
      attributes: half, newton on
      pair build: skip
      stencil: none
      bin: none
  (2) pair lj/twopiece, perpetual, skip from (7)
      attributes: half, newton on
      pair build: skip
      stencil: none
      bin: none
  (3) pair soft/shift, perpetual, skip from (7)
      attributes: half, newton on
      pair build: skip
      stencil: none
      bin: none
  (4) pair zero, perpetual, skip from (7)
      attributes: half, newton on
      pair build: skip
      stencil: none
      bin: none
  (5) pair morse, perpetual, skip from (7)
      attributes: half, newton on
      pair build: skip
      stencil: none
      bin: none
  (6) compute pair/local, occasional, copy from (7)
      attributes: half, newton on
      pair build: copy
      stencil: none
      bin: none
  (7) neighbor class addition, perpetual
      attributes: half, newton on
      pair build: half/bin/newton
      stencil: half/bin/3d/newton
      bin: standard
Setting up Verlet run ...
  Unit style    : lj
  Current step  : 79000
  Time step     : 0.001
Per MPI rank memory allocation (min/avg/max) = 9.833 | 9.833 | 9.833 Mbytes
Step Temp E_pair E_mol TotEng Press 
   79000            0     10.51293            0     10.51293 0.0016699395 
   79200            0     10.51293            0     10.51293 0.0016699395 
   79400            0     10.51293            0     10.51293 0.0016699395 
   79600            0     10.51293            0     10.51293 0.0016699395 
   79800            0     10.51293            0     10.51293 0.0016699395 
   80000            0     10.51293            0     10.51293 0.0016699395 
Loop time of 0.00382805 on 1 procs for 1000 steps with 2 atoms

Performance: 22570245.740 tau/day, 261229.696 timesteps/s
0.0% CPU use with 1 MPI tasks x 1 OpenMP threads

MPI task timing breakdown:
Section |  min time  |  avg time  |  max time  |%varavg| %total
---------------------------------------------------------------
Pair    | 0.00050116 | 0.00050116 | 0.00050116 |   0.0 | 13.09
Bond    | 0.00029969 | 0.00029969 | 0.00029969 |   0.0 |  7.83
Neigh   | 0          | 0          | 0          |   0.0 |  0.00
Comm    | 0.00052857 | 0.00052857 | 0.00052857 |   0.0 | 13.81
Output  | 0.001153   | 0.001153   | 0.001153   |   0.0 | 30.12
Modify  | 0.00051999 | 0.00051999 | 0.00051999 |   0.0 | 13.58
Other   |            | 0.0008256  |            |       | 21.57

Nlocal:    2 ave 2 max 2 min
Histogram: 1 0 0 0 0 0 0 0 0 0
Nghost:    0 ave 0 max 0 min
Histogram: 1 0 0 0 0 0 0 0 0 0
Neighs:    0 ave 0 max 0 min
Histogram: 1 0 0 0 0 0 0 0 0 0

Total # of neighbors = 0
Ave neighs/atom = 0
Ave special neighs/atom = 0
Neighbor list builds = 0
Dangerous builds = 0
Displacing atoms ...
Neighbor list info ...
  update every 1 steps, delay 10 steps, check yes
  max neighbors/atom: 2000, page size: 100000
  master list distance cutoff = 2.8
  ghost atom cutoff = 2.8
  binsize = 1.4, bins = 29 29 29
  7 neighbor lists, perpetual/occasional/extra = 6 1 0
  (1) pair lj/expand/twopiece, perpetual, skip from (7)
      attributes: half, newton on
      pair build: skip
      stencil: none
      bin: none
  (2) pair lj/twopiece, perpetual, skip from (7)
      attributes: half, newton on
      pair build: skip
      stencil: none
      bin: none
  (3) pair soft/shift, perpetual, skip from (7)
      attributes: half, newton on
      pair build: skip
      stencil: none
      bin: none
  (4) pair zero, perpetual, skip from (7)
      attributes: half, newton on
      pair build: skip
      stencil: none
      bin: none
  (5) pair morse, perpetual, skip from (7)
      attributes: half, newton on
      pair build: skip
      stencil: none
      bin: none
  (6) compute pair/local, occasional, copy from (7)
      attributes: half, newton on
      pair build: copy
      stencil: none
      bin: none
  (7) neighbor class addition, perpetual
      attributes: half, newton on
      pair build: half/bin/newton
      stencil: half/bin/3d/newton
      bin: standard
Setting up Verlet run ...
  Unit style    : lj
  Current step  : 80000
  Time step     : 0.001
Per MPI rank memory allocation (min/avg/max) = 9.833 | 9.833 | 9.833 Mbytes
Step Temp E_pair E_mol TotEng Press 
   80000            0    21.474436            0    21.474436 0.0031611416 
   80200            0    21.474436            0    21.474436 0.0031611416 
   80400            0    21.474436            0    21.474436 0.0031611416 
   80600            0    21.474436            0    21.474436 0.0031611416 
   80800            0    21.474436            0    21.474436 0.0031611416 
   81000            0    21.474436            0    21.474436 0.0031611416 
Loop time of 0.0040679 on 1 procs for 1000 steps with 2 atoms

Performance: 21239471.668 tau/day, 245827.218 timesteps/s
0.0% CPU use with 1 MPI tasks x 1 OpenMP threads

MPI task timing breakdown:
Section |  min time  |  avg time  |  max time  |%varavg| %total
---------------------------------------------------------------
Pair    | 0.00052071 | 0.00052071 | 0.00052071 |   0.0 | 12.80
Bond    | 0.00030494 | 0.00030494 | 0.00030494 |   0.0 |  7.50
Neigh   | 0          | 0          | 0          |   0.0 |  0.00
Comm    | 0.00052118 | 0.00052118 | 0.00052118 |   0.0 | 12.81
Output  | 0.0013638  | 0.0013638  | 0.0013638  |   0.0 | 33.52
Modify  | 0.0005095  | 0.0005095  | 0.0005095  |   0.0 | 12.52
Other   |            | 0.0008478  |            |       | 20.84

Nlocal:    2 ave 2 max 2 min
Histogram: 1 0 0 0 0 0 0 0 0 0
Nghost:    0 ave 0 max 0 min
Histogram: 1 0 0 0 0 0 0 0 0 0
Neighs:    0 ave 0 max 0 min
Histogram: 1 0 0 0 0 0 0 0 0 0

Total # of neighbors = 0
Ave neighs/atom = 0
Ave special neighs/atom = 0
Neighbor list builds = 0
Dangerous builds = 0
Total wall time: 0:00:00
