LAMMPS (7 Aug 2019)
OMP_NUM_THREADS environment is not set. Defaulting to 1 thread. (src/comm.cpp:93)
  using 1 OpenMP thread(s) per MPI task
Reading data file ...
  orthogonal box = (-20 -20 -20) to (20 20 20)
  1 by 1 by 1 MPI processor grid
  reading atoms ...
  2 atoms
Finding 1-2 1-3 1-4 neighbors ...
  special bond factors lj:   0          0          0         
  special bond factors coul: 0          0          0         
  0 = max # of 1-2 neighbors
  0 = max # of 1-3 neighbors
  0 = max # of 1-4 neighbors
  1 = max # of special neighbors
  special bonds CPU = 7.2e-05 secs
  read_data CPU = 0.002274 secs
1 atoms in group atom1
1 atoms in group atom2
Neighbor list info ...
  update every 1 steps, delay 10 steps, check yes
  max neighbors/atom: 2000, page size: 100000
  master list distance cutoff = 2.8
  ghost atom cutoff = 2.8
  binsize = 1.4, bins = 29 29 29
  7 neighbor lists, perpetual/occasional/extra = 6 1 0
  (1) pair lj/expand/twopiece, perpetual, skip from (7)
      attributes: half, newton on
      pair build: skip
      stencil: none
      bin: none
  (2) pair lj/twopiece, perpetual, skip from (7)
      attributes: half, newton on
      pair build: skip
      stencil: none
      bin: none
  (3) pair soft/shift, perpetual, skip from (7)
      attributes: half, newton on
      pair build: skip
      stencil: none
      bin: none
  (4) pair zero, perpetual, skip from (7)
      attributes: half, newton on
      pair build: skip
      stencil: none
      bin: none
  (5) pair morse, perpetual, skip from (7)
      attributes: half, newton on
      pair build: skip
      stencil: none
      bin: none
  (6) compute pair/local, occasional, copy from (7)
      attributes: half, newton on
      pair build: copy
      stencil: none
      bin: none
  (7) neighbor class addition, perpetual
      attributes: half, newton on
      pair build: half/bin/newton
      stencil: half/bin/3d/newton
      bin: standard
Setting up Verlet run ...
  Unit style    : lj
  Current step  : 0
  Time step     : 0.001
Per MPI rank memory allocation (min/avg/max) = 8.714 | 8.714 | 8.714 Mbytes
Step Temp E_pair E_mol TotEng Press 
       0            0 -0.00048816204            0 -0.00048816204 -3.0502677e-08 
     200            0 -0.00048816204            0 -0.00048816204 -3.0502677e-08 
     400            0 -0.00048816204            0 -0.00048816204 -3.0502677e-08 
     600            0 -0.00048816204            0 -0.00048816204 -3.0502677e-08 
     800            0 -0.00048816204            0 -0.00048816204 -3.0502677e-08 
    1000            0 -0.00048816204            0 -0.00048816204 -3.0502677e-08 
Loop time of 0.019946 on 1 procs for 1000 steps with 2 atoms

Performance: 4331695.587 tau/day, 50135.366 timesteps/s
0.0% CPU use with 1 MPI tasks x 1 OpenMP threads

MPI task timing breakdown:
Section |  min time  |  avg time  |  max time  |%varavg| %total
---------------------------------------------------------------
Pair    | 0.001879   | 0.001879   | 0.001879   |   0.0 |  9.42
Bond    | 0.002116   | 0.002116   | 0.002116   |   0.0 | 10.61
Neigh   | 0          | 0          | 0          |   0.0 |  0.00
Comm    | 0.003682   | 0.003682   | 0.003682   |   0.0 | 18.46
Output  | 0.003924   | 0.003924   | 0.003924   |   0.0 | 19.67
Modify  | 0.00289    | 0.00289    | 0.00289    |   0.0 | 14.49
Other   |            | 0.005455   |            |       | 27.35

Nlocal:    2 ave 2 max 2 min
Histogram: 1 0 0 0 0 0 0 0 0 0
Nghost:    0 ave 0 max 0 min
Histogram: 1 0 0 0 0 0 0 0 0 0
Neighs:    0 ave 0 max 0 min
Histogram: 1 0 0 0 0 0 0 0 0 0

Total # of neighbors = 0
Ave neighs/atom = 0
Ave special neighs/atom = 0
Neighbor list builds = 0
Dangerous builds = 0
Displacing atoms ...
Neighbor list info ...
  update every 1 steps, delay 10 steps, check yes
  max neighbors/atom: 2000, page size: 100000
  master list distance cutoff = 2.8
  ghost atom cutoff = 2.8
  binsize = 1.4, bins = 29 29 29
  7 neighbor lists, perpetual/occasional/extra = 6 1 0
  (1) pair lj/expand/twopiece, perpetual, skip from (7)
      attributes: half, newton on
      pair build: skip
      stencil: none
      bin: none
  (2) pair lj/twopiece, perpetual, skip from (7)
      attributes: half, newton on
      pair build: skip
      stencil: none
      bin: none
  (3) pair soft/shift, perpetual, skip from (7)
      attributes: half, newton on
      pair build: skip
      stencil: none
      bin: none
  (4) pair zero, perpetual, skip from (7)
      attributes: half, newton on
      pair build: skip
      stencil: none
      bin: none
  (5) pair morse, perpetual, skip from (7)
      attributes: half, newton on
      pair build: skip
      stencil: none
      bin: none
  (6) compute pair/local, occasional, copy from (7)
      attributes: half, newton on
      pair build: copy
      stencil: none
      bin: none
  (7) neighbor class addition, perpetual
      attributes: half, newton on
      pair build: half/bin/newton
      stencil: half/bin/3d/newton
      bin: standard
Setting up Verlet run ...
  Unit style    : lj
  Current step  : 1000
  Time step     : 0.001
Per MPI rank memory allocation (min/avg/max) = 9.833 | 9.833 | 9.833 Mbytes
Step Temp E_pair E_mol TotEng Press 
    1000            0 -0.000518497            0 -0.000518497 -3.2397657e-08 
    1200            0 -0.000518497            0 -0.000518497 -3.2397657e-08 
    1400            0 -0.000518497            0 -0.000518497 -3.2397657e-08 
    1600            0 -0.000518497            0 -0.000518497 -3.2397657e-08 
    1800            0 -0.000518497            0 -0.000518497 -3.2397657e-08 
    2000            0 -0.000518497            0 -0.000518497 -3.2397657e-08 
Loop time of 0.023979 on 1 procs for 1000 steps with 2 atoms

Performance: 3603152.760 tau/day, 41703.157 timesteps/s
65.2% CPU use with 1 MPI tasks x 1 OpenMP threads

MPI task timing breakdown:
Section |  min time  |  avg time  |  max time  |%varavg| %total
---------------------------------------------------------------
Pair    | 0.003005   | 0.003005   | 0.003005   |   0.0 | 12.53
Bond    | 0.002793   | 0.002793   | 0.002793   |   0.0 | 11.65
Neigh   | 0          | 0          | 0          |   0.0 |  0.00
Comm    | 0.004932   | 0.004932   | 0.004932   |   0.0 | 20.57
Output  | 0.004657   | 0.004657   | 0.004657   |   0.0 | 19.42
Modify  | 0.003109   | 0.003109   | 0.003109   |   0.0 | 12.97
Other   |            | 0.005483   |            |       | 22.87

Nlocal:    2 ave 2 max 2 min
Histogram: 1 0 0 0 0 0 0 0 0 0
Nghost:    0 ave 0 max 0 min
Histogram: 1 0 0 0 0 0 0 0 0 0
Neighs:    0 ave 0 max 0 min
Histogram: 1 0 0 0 0 0 0 0 0 0

Total # of neighbors = 0
Ave neighs/atom = 0
Ave special neighs/atom = 0
Neighbor list builds = 0
Dangerous builds = 0
Displacing atoms ...
Neighbor list info ...
  update every 1 steps, delay 10 steps, check yes
  max neighbors/atom: 2000, page size: 100000
  master list distance cutoff = 2.8
  ghost atom cutoff = 2.8
  binsize = 1.4, bins = 29 29 29
  7 neighbor lists, perpetual/occasional/extra = 6 1 0
  (1) pair lj/expand/twopiece, perpetual, skip from (7)
      attributes: half, newton on
      pair build: skip
      stencil: none
      bin: none
  (2) pair lj/twopiece, perpetual, skip from (7)
      attributes: half, newton on
      pair build: skip
      stencil: none
      bin: none
  (3) pair soft/shift, perpetual, skip from (7)
      attributes: half, newton on
      pair build: skip
      stencil: none
      bin: none
  (4) pair zero, perpetual, skip from (7)
      attributes: half, newton on
      pair build: skip
      stencil: none
      bin: none
  (5) pair morse, perpetual, skip from (7)
      attributes: half, newton on
      pair build: skip
      stencil: none
      bin: none
  (6) compute pair/local, occasional, copy from (7)
      attributes: half, newton on
      pair build: copy
      stencil: none
      bin: none
  (7) neighbor class addition, perpetual
      attributes: half, newton on
      pair build: half/bin/newton
      stencil: half/bin/3d/newton
      bin: standard
Setting up Verlet run ...
  Unit style    : lj
  Current step  : 2000
  Time step     : 0.001
Per MPI rank memory allocation (min/avg/max) = 9.833 | 9.833 | 9.833 Mbytes
Step Temp E_pair E_mol TotEng Press 
    2000            0 -0.00055105365            0 -0.00055105365 -3.4431359e-08 
    2200            0 -0.00055105365            0 -0.00055105365 -3.4431359e-08 
    2400            0 -0.00055105365            0 -0.00055105365 -3.4431359e-08 
    2600            0 -0.00055105365            0 -0.00055105365 -3.4431359e-08 
    2800            0 -0.00055105365            0 -0.00055105365 -3.4431359e-08 
    3000            0 -0.00055105365            0 -0.00055105365 -3.4431359e-08 
Loop time of 0.021894 on 1 procs for 1000 steps with 2 atoms

Performance: 3946286.653 tau/day, 45674.614 timesteps/s
0.0% CPU use with 1 MPI tasks x 1 OpenMP threads

MPI task timing breakdown:
Section |  min time  |  avg time  |  max time  |%varavg| %total
---------------------------------------------------------------
Pair    | 0.00151    | 0.00151    | 0.00151    |   0.0 |  6.90
Bond    | 0.001274   | 0.001274   | 0.001274   |   0.0 |  5.82
Neigh   | 0          | 0          | 0          |   0.0 |  0.00
Comm    | 0.002351   | 0.002351   | 0.002351   |   0.0 | 10.74
Output  | 0.010441   | 0.010441   | 0.010441   |   0.0 | 47.69
Modify  | 0.00247    | 0.00247    | 0.00247    |   0.0 | 11.28
Other   |            | 0.003848   |            |       | 17.58

Nlocal:    2 ave 2 max 2 min
Histogram: 1 0 0 0 0 0 0 0 0 0
Nghost:    0 ave 0 max 0 min
Histogram: 1 0 0 0 0 0 0 0 0 0
Neighs:    0 ave 0 max 0 min
Histogram: 1 0 0 0 0 0 0 0 0 0

Total # of neighbors = 0
Ave neighs/atom = 0
Ave special neighs/atom = 0
Neighbor list builds = 0
Dangerous builds = 0
Displacing atoms ...
Neighbor list info ...
  update every 1 steps, delay 10 steps, check yes
  max neighbors/atom: 2000, page size: 100000
  master list distance cutoff = 2.8
  ghost atom cutoff = 2.8
  binsize = 1.4, bins = 29 29 29
  7 neighbor lists, perpetual/occasional/extra = 6 1 0
  (1) pair lj/expand/twopiece, perpetual, skip from (7)
      attributes: half, newton on
      pair build: skip
      stencil: none
      bin: none
  (2) pair lj/twopiece, perpetual, skip from (7)
      attributes: half, newton on
      pair build: skip
      stencil: none
      bin: none
  (3) pair soft/shift, perpetual, skip from (7)
      attributes: half, newton on
      pair build: skip
      stencil: none
      bin: none
  (4) pair zero, perpetual, skip from (7)
      attributes: half, newton on
      pair build: skip
      stencil: none
      bin: none
  (5) pair morse, perpetual, skip from (7)
      attributes: half, newton on
      pair build: skip
      stencil: none
      bin: none
  (6) compute pair/local, occasional, copy from (7)
      attributes: half, newton on
      pair build: copy
      stencil: none
      bin: none
  (7) neighbor class addition, perpetual
      attributes: half, newton on
      pair build: half/bin/newton
      stencil: half/bin/3d/newton
      bin: standard
Setting up Verlet run ...
  Unit style    : lj
  Current step  : 3000
  Time step     : 0.001
Per MPI rank memory allocation (min/avg/max) = 9.833 | 9.833 | 9.833 Mbytes
Step Temp E_pair E_mol TotEng Press 
    3000            0 -0.00058601986            0 -0.00058601986 -3.6615503e-08 
    3200            0 -0.00058601986            0 -0.00058601986 -3.6615503e-08 
    3400            0 -0.00058601986            0 -0.00058601986 -3.6615503e-08 
    3600            0 -0.00058601986            0 -0.00058601986 -3.6615503e-08 
    3800            0 -0.00058601986            0 -0.00058601986 -3.6615503e-08 
    4000            0 -0.00058601986            0 -0.00058601986 -3.6615503e-08 
Loop time of 0.016792 on 1 procs for 1000 steps with 2 atoms

Performance: 5145307.295 tau/day, 59552.168 timesteps/s
0.0% CPU use with 1 MPI tasks x 1 OpenMP threads

MPI task timing breakdown:
Section |  min time  |  avg time  |  max time  |%varavg| %total
---------------------------------------------------------------
Pair    | 0.001863   | 0.001863   | 0.001863   |   0.0 | 11.09
Bond    | 0.001574   | 0.001574   | 0.001574   |   0.0 |  9.37
Neigh   | 0          | 0          | 0          |   0.0 |  0.00
Comm    | 0.002702   | 0.002702   | 0.002702   |   0.0 | 16.09
Output  | 0.003462   | 0.003462   | 0.003462   |   0.0 | 20.62
Modify  | 0.002785   | 0.002785   | 0.002785   |   0.0 | 16.59
Other   |            | 0.004406   |            |       | 26.24

Nlocal:    2 ave 2 max 2 min
Histogram: 1 0 0 0 0 0 0 0 0 0
Nghost:    0 ave 0 max 0 min
Histogram: 1 0 0 0 0 0 0 0 0 0
Neighs:    0 ave 0 max 0 min
Histogram: 1 0 0 0 0 0 0 0 0 0

Total # of neighbors = 0
Ave neighs/atom = 0
Ave special neighs/atom = 0
Neighbor list builds = 0
Dangerous builds = 0
Displacing atoms ...
Neighbor list info ...
  update every 1 steps, delay 10 steps, check yes
  max neighbors/atom: 2000, page size: 100000
  master list distance cutoff = 2.8
  ghost atom cutoff = 2.8
  binsize = 1.4, bins = 29 29 29
  7 neighbor lists, perpetual/occasional/extra = 6 1 0
  (1) pair lj/expand/twopiece, perpetual, skip from (7)
      attributes: half, newton on
      pair build: skip
      stencil: none
      bin: none
  (2) pair lj/twopiece, perpetual, skip from (7)
      attributes: half, newton on
      pair build: skip
      stencil: none
      bin: none
  (3) pair soft/shift, perpetual, skip from (7)
      attributes: half, newton on
      pair build: skip
      stencil: none
      bin: none
  (4) pair zero, perpetual, skip from (7)
      attributes: half, newton on
      pair build: skip
      stencil: none
      bin: none
  (5) pair morse, perpetual, skip from (7)
      attributes: half, newton on
      pair build: skip
      stencil: none
      bin: none
  (6) compute pair/local, occasional, copy from (7)
      attributes: half, newton on
      pair build: copy
      stencil: none
      bin: none
  (7) neighbor class addition, perpetual
      attributes: half, newton on
      pair build: half/bin/newton
      stencil: half/bin/3d/newton
      bin: standard
Setting up Verlet run ...
  Unit style    : lj
  Current step  : 4000
  Time step     : 0.001
Per MPI rank memory allocation (min/avg/max) = 9.833 | 9.833 | 9.833 Mbytes
Step Temp E_pair E_mol TotEng Press 
    4000            0 -0.00062360153            0 -0.00062360153 -3.8962936e-08 
    4200            0 -0.00062360153            0 -0.00062360153 -3.8962936e-08 
    4400            0 -0.00062360153            0 -0.00062360153 -3.8962936e-08 
    4600            0 -0.00062360153            0 -0.00062360153 -3.8962936e-08 
    4800            0 -0.00062360153            0 -0.00062360153 -3.8962936e-08 
    5000            0 -0.00062360153            0 -0.00062360153 -3.8962936e-08 
Loop time of 0.016536 on 1 procs for 1000 steps with 2 atoms

Performance: 5224963.712 tau/day, 60474.117 timesteps/s
94.5% CPU use with 1 MPI tasks x 1 OpenMP threads

MPI task timing breakdown:
Section |  min time  |  avg time  |  max time  |%varavg| %total
---------------------------------------------------------------
Pair    | 0.001699   | 0.001699   | 0.001699   |   0.0 | 10.27
Bond    | 0.00131    | 0.00131    | 0.00131    |   0.0 |  7.92
Neigh   | 0          | 0          | 0          |   0.0 |  0.00
Comm    | 0.002488   | 0.002488   | 0.002488   |   0.0 | 15.05
Output  | 0.003479   | 0.003479   | 0.003479   |   0.0 | 21.04
Modify  | 0.002499   | 0.002499   | 0.002499   |   0.0 | 15.11
Other   |            | 0.005061   |            |       | 30.61

Nlocal:    2 ave 2 max 2 min
Histogram: 1 0 0 0 0 0 0 0 0 0
Nghost:    0 ave 0 max 0 min
Histogram: 1 0 0 0 0 0 0 0 0 0
Neighs:    0 ave 0 max 0 min
Histogram: 1 0 0 0 0 0 0 0 0 0

Total # of neighbors = 0
Ave neighs/atom = 0
Ave special neighs/atom = 0
Neighbor list builds = 0
Dangerous builds = 0
Displacing atoms ...
Neighbor list info ...
  update every 1 steps, delay 10 steps, check yes
  max neighbors/atom: 2000, page size: 100000
  master list distance cutoff = 2.8
  ghost atom cutoff = 2.8
  binsize = 1.4, bins = 29 29 29
  7 neighbor lists, perpetual/occasional/extra = 6 1 0
  (1) pair lj/expand/twopiece, perpetual, skip from (7)
      attributes: half, newton on
      pair build: skip
      stencil: none
      bin: none
  (2) pair lj/twopiece, perpetual, skip from (7)
      attributes: half, newton on
      pair build: skip
      stencil: none
      bin: none
  (3) pair soft/shift, perpetual, skip from (7)
      attributes: half, newton on
      pair build: skip
      stencil: none
      bin: none
  (4) pair zero, perpetual, skip from (7)
      attributes: half, newton on
      pair build: skip
      stencil: none
      bin: none
  (5) pair morse, perpetual, skip from (7)
      attributes: half, newton on
      pair build: skip
      stencil: none
      bin: none
  (6) compute pair/local, occasional, copy from (7)
      attributes: half, newton on
      pair build: copy
      stencil: none
      bin: none
  (7) neighbor class addition, perpetual
      attributes: half, newton on
      pair build: half/bin/newton
      stencil: half/bin/3d/newton
      bin: standard
Setting up Verlet run ...
  Unit style    : lj
  Current step  : 5000
  Time step     : 0.001
Per MPI rank memory allocation (min/avg/max) = 9.833 | 9.833 | 9.833 Mbytes
Step Temp E_pair E_mol TotEng Press 
    5000            0 -0.00066402458            0 -0.00066402458 -4.1487748e-08 
    5200            0 -0.00066402458            0 -0.00066402458 -4.1487748e-08 
    5400            0 -0.00066402458            0 -0.00066402458 -4.1487748e-08 
    5600            0 -0.00066402458            0 -0.00066402458 -4.1487748e-08 
    5800            0 -0.00066402458            0 -0.00066402458 -4.1487748e-08 
    6000            0 -0.00066402458            0 -0.00066402458 -4.1487748e-08 
Loop time of 0.01862 on 1 procs for 1000 steps with 2 atoms

Performance: 4640171.861 tau/day, 53705.693 timesteps/s
83.9% CPU use with 1 MPI tasks x 1 OpenMP threads

MPI task timing breakdown:
Section |  min time  |  avg time  |  max time  |%varavg| %total
---------------------------------------------------------------
Pair    | 0.001797   | 0.001797   | 0.001797   |   0.0 |  9.65
Bond    | 0.001686   | 0.001686   | 0.001686   |   0.0 |  9.05
Neigh   | 0          | 0          | 0          |   0.0 |  0.00
Comm    | 0.003334   | 0.003334   | 0.003334   |   0.0 | 17.91
Output  | 0.003235   | 0.003235   | 0.003235   |   0.0 | 17.37
Modify  | 0.003029   | 0.003029   | 0.003029   |   0.0 | 16.27
Other   |            | 0.005539   |            |       | 29.75

Nlocal:    2 ave 2 max 2 min
Histogram: 1 0 0 0 0 0 0 0 0 0
Nghost:    0 ave 0 max 0 min
Histogram: 1 0 0 0 0 0 0 0 0 0
Neighs:    0 ave 0 max 0 min
Histogram: 1 0 0 0 0 0 0 0 0 0

Total # of neighbors = 0
Ave neighs/atom = 0
Ave special neighs/atom = 0
Neighbor list builds = 0
Dangerous builds = 0
Displacing atoms ...
Neighbor list info ...
  update every 1 steps, delay 10 steps, check yes
  max neighbors/atom: 2000, page size: 100000
  master list distance cutoff = 2.8
  ghost atom cutoff = 2.8
  binsize = 1.4, bins = 29 29 29
  7 neighbor lists, perpetual/occasional/extra = 6 1 0
  (1) pair lj/expand/twopiece, perpetual, skip from (7)
      attributes: half, newton on
      pair build: skip
      stencil: none
      bin: none
  (2) pair lj/twopiece, perpetual, skip from (7)
      attributes: half, newton on
      pair build: skip
      stencil: none
      bin: none
  (3) pair soft/shift, perpetual, skip from (7)
      attributes: half, newton on
      pair build: skip
      stencil: none
      bin: none
  (4) pair zero, perpetual, skip from (7)
      attributes: half, newton on
      pair build: skip
      stencil: none
      bin: none
  (5) pair morse, perpetual, skip from (7)
      attributes: half, newton on
      pair build: skip
      stencil: none
      bin: none
  (6) compute pair/local, occasional, copy from (7)
      attributes: half, newton on
      pair build: copy
      stencil: none
      bin: none
  (7) neighbor class addition, perpetual
      attributes: half, newton on
      pair build: half/bin/newton
      stencil: half/bin/3d/newton
      bin: standard
Setting up Verlet run ...
  Unit style    : lj
  Current step  : 6000
  Time step     : 0.001
Per MPI rank memory allocation (min/avg/max) = 9.833 | 9.833 | 9.833 Mbytes
Step Temp E_pair E_mol TotEng Press 
    6000            0 -0.00070753708            0 -0.00070753708 -4.4205412e-08 
    6200            0 -0.00070753708            0 -0.00070753708 -4.4205412e-08 
    6400            0 -0.00070753708            0 -0.00070753708 -4.4205412e-08 
    6600            0 -0.00070753708            0 -0.00070753708 -4.4205412e-08 
    6800            0 -0.00070753708            0 -0.00070753708 -4.4205412e-08 
    7000            0 -0.00070753708            0 -0.00070753708 -4.4205412e-08 
Loop time of 0.019437 on 1 procs for 1000 steps with 2 atoms

Performance: 4445130.426 tau/day, 51448.269 timesteps/s
0.0% CPU use with 1 MPI tasks x 1 OpenMP threads

MPI task timing breakdown:
Section |  min time  |  avg time  |  max time  |%varavg| %total
---------------------------------------------------------------
Pair    | 0.001857   | 0.001857   | 0.001857   |   0.0 |  9.55
Bond    | 0.001421   | 0.001421   | 0.001421   |   0.0 |  7.31
Neigh   | 0          | 0          | 0          |   0.0 |  0.00
Comm    | 0.004149   | 0.004149   | 0.004149   |   0.0 | 21.35
Output  | 0.003417   | 0.003417   | 0.003417   |   0.0 | 17.58
Modify  | 0.002826   | 0.002826   | 0.002826   |   0.0 | 14.54
Other   |            | 0.005767   |            |       | 29.67

Nlocal:    2 ave 2 max 2 min
Histogram: 1 0 0 0 0 0 0 0 0 0
Nghost:    0 ave 0 max 0 min
Histogram: 1 0 0 0 0 0 0 0 0 0
Neighs:    0 ave 0 max 0 min
Histogram: 1 0 0 0 0 0 0 0 0 0

Total # of neighbors = 0
Ave neighs/atom = 0
Ave special neighs/atom = 0
Neighbor list builds = 0
Dangerous builds = 0
Displacing atoms ...
Neighbor list info ...
  update every 1 steps, delay 10 steps, check yes
  max neighbors/atom: 2000, page size: 100000
  master list distance cutoff = 2.8
  ghost atom cutoff = 2.8
  binsize = 1.4, bins = 29 29 29
  7 neighbor lists, perpetual/occasional/extra = 6 1 0
  (1) pair lj/expand/twopiece, perpetual, skip from (7)
      attributes: half, newton on
      pair build: skip
      stencil: none
      bin: none
  (2) pair lj/twopiece, perpetual, skip from (7)
      attributes: half, newton on
      pair build: skip
      stencil: none
      bin: none
  (3) pair soft/shift, perpetual, skip from (7)
      attributes: half, newton on
      pair build: skip
      stencil: none
      bin: none
  (4) pair zero, perpetual, skip from (7)
      attributes: half, newton on
      pair build: skip
      stencil: none
      bin: none
  (5) pair morse, perpetual, skip from (7)
      attributes: half, newton on
      pair build: skip
      stencil: none
      bin: none
  (6) compute pair/local, occasional, copy from (7)
      attributes: half, newton on
      pair build: copy
      stencil: none
      bin: none
  (7) neighbor class addition, perpetual
      attributes: half, newton on
      pair build: half/bin/newton
      stencil: half/bin/3d/newton
      bin: standard
Setting up Verlet run ...
  Unit style    : lj
  Current step  : 7000
  Time step     : 0.001
Per MPI rank memory allocation (min/avg/max) = 9.833 | 9.833 | 9.833 Mbytes
Step Temp E_pair E_mol TotEng Press 
    7000            0 -0.00075441175            0 -0.00075441175 -4.7132936e-08 
    7200            0 -0.00075441175            0 -0.00075441175 -4.7132936e-08 
    7400            0 -0.00075441175            0 -0.00075441175 -4.7132936e-08 
    7600            0 -0.00075441175            0 -0.00075441175 -4.7132936e-08 
    7800            0 -0.00075441175            0 -0.00075441175 -4.7132936e-08 
    8000            0 -0.00075441175            0 -0.00075441175 -4.7132936e-08 
Loop time of 0.019322 on 1 procs for 1000 steps with 2 atoms

Performance: 4471586.784 tau/day, 51754.477 timesteps/s
0.0% CPU use with 1 MPI tasks x 1 OpenMP threads

MPI task timing breakdown:
Section |  min time  |  avg time  |  max time  |%varavg| %total
---------------------------------------------------------------
Pair    | 0.001962   | 0.001962   | 0.001962   |   0.0 | 10.15
Bond    | 0.001757   | 0.001757   | 0.001757   |   0.0 |  9.09
Neigh   | 0          | 0          | 0          |   0.0 |  0.00
Comm    | 0.002978   | 0.002978   | 0.002978   |   0.0 | 15.41
Output  | 0.004967   | 0.004967   | 0.004967   |   0.0 | 25.71
Modify  | 0.002777   | 0.002777   | 0.002777   |   0.0 | 14.37
Other   |            | 0.004881   |            |       | 25.26

Nlocal:    2 ave 2 max 2 min
Histogram: 1 0 0 0 0 0 0 0 0 0
Nghost:    0 ave 0 max 0 min
Histogram: 1 0 0 0 0 0 0 0 0 0
Neighs:    0 ave 0 max 0 min
Histogram: 1 0 0 0 0 0 0 0 0 0

Total # of neighbors = 0
Ave neighs/atom = 0
Ave special neighs/atom = 0
Neighbor list builds = 0
Dangerous builds = 0
Displacing atoms ...
Neighbor list info ...
  update every 1 steps, delay 10 steps, check yes
  max neighbors/atom: 2000, page size: 100000
  master list distance cutoff = 2.8
  ghost atom cutoff = 2.8
  binsize = 1.4, bins = 29 29 29
  7 neighbor lists, perpetual/occasional/extra = 6 1 0
  (1) pair lj/expand/twopiece, perpetual, skip from (7)
      attributes: half, newton on
      pair build: skip
      stencil: none
      bin: none
  (2) pair lj/twopiece, perpetual, skip from (7)
      attributes: half, newton on
      pair build: skip
      stencil: none
      bin: none
  (3) pair soft/shift, perpetual, skip from (7)
      attributes: half, newton on
      pair build: skip
      stencil: none
      bin: none
  (4) pair zero, perpetual, skip from (7)
      attributes: half, newton on
      pair build: skip
      stencil: none
      bin: none
  (5) pair morse, perpetual, skip from (7)
      attributes: half, newton on
      pair build: skip
      stencil: none
      bin: none
  (6) compute pair/local, occasional, copy from (7)
      attributes: half, newton on
      pair build: copy
      stencil: none
      bin: none
  (7) neighbor class addition, perpetual
      attributes: half, newton on
      pair build: half/bin/newton
      stencil: half/bin/3d/newton
      bin: standard
Setting up Verlet run ...
  Unit style    : lj
  Current step  : 8000
  Time step     : 0.001
Per MPI rank memory allocation (min/avg/max) = 9.833 | 9.833 | 9.833 Mbytes
Step Temp E_pair E_mol TotEng Press 
    8000            0 -0.00080494867            0 -0.00080494867 -5.0289027e-08 
    8200            0 -0.00080494867            0 -0.00080494867 -5.0289027e-08 
    8400            0 -0.00080494867            0 -0.00080494867 -5.0289027e-08 
    8600            0 -0.00080494867            0 -0.00080494867 -5.0289027e-08 
    8800            0 -0.00080494867            0 -0.00080494867 -5.0289027e-08 
    9000            0 -0.00080494867            0 -0.00080494867 -5.0289027e-08 
Loop time of 0.018228 on 1 procs for 1000 steps with 2 atoms

Performance: 4739960.493 tau/day, 54860.654 timesteps/s
0.0% CPU use with 1 MPI tasks x 1 OpenMP threads

MPI task timing breakdown:
Section |  min time  |  avg time  |  max time  |%varavg| %total
---------------------------------------------------------------
Pair    | 0.001927   | 0.001927   | 0.001927   |   0.0 | 10.57
Bond    | 0.001771   | 0.001771   | 0.001771   |   0.0 |  9.72
Neigh   | 0          | 0          | 0          |   0.0 |  0.00
Comm    | 0.002642   | 0.002642   | 0.002642   |   0.0 | 14.49
Output  | 0.004429   | 0.004429   | 0.004429   |   0.0 | 24.30
Modify  | 0.002579   | 0.002579   | 0.002579   |   0.0 | 14.15
Other   |            | 0.00488    |            |       | 26.77

Nlocal:    2 ave 2 max 2 min
Histogram: 1 0 0 0 0 0 0 0 0 0
Nghost:    0 ave 0 max 0 min
Histogram: 1 0 0 0 0 0 0 0 0 0
Neighs:    0 ave 0 max 0 min
Histogram: 1 0 0 0 0 0 0 0 0 0

Total # of neighbors = 0
Ave neighs/atom = 0
Ave special neighs/atom = 0
Neighbor list builds = 0
Dangerous builds = 0
Displacing atoms ...
Neighbor list info ...
  update every 1 steps, delay 10 steps, check yes
  max neighbors/atom: 2000, page size: 100000
  master list distance cutoff = 2.8
  ghost atom cutoff = 2.8
  binsize = 1.4, bins = 29 29 29
  7 neighbor lists, perpetual/occasional/extra = 6 1 0
  (1) pair lj/expand/twopiece, perpetual, skip from (7)
      attributes: half, newton on
      pair build: skip
      stencil: none
      bin: none
  (2) pair lj/twopiece, perpetual, skip from (7)
      attributes: half, newton on
      pair build: skip
      stencil: none
      bin: none
  (3) pair soft/shift, perpetual, skip from (7)
      attributes: half, newton on
      pair build: skip
      stencil: none
      bin: none
  (4) pair zero, perpetual, skip from (7)
      attributes: half, newton on
      pair build: skip
      stencil: none
      bin: none
  (5) pair morse, perpetual, skip from (7)
      attributes: half, newton on
      pair build: skip
      stencil: none
      bin: none
  (6) compute pair/local, occasional, copy from (7)
      attributes: half, newton on
      pair build: copy
      stencil: none
      bin: none
  (7) neighbor class addition, perpetual
      attributes: half, newton on
      pair build: half/bin/newton
      stencil: half/bin/3d/newton
      bin: standard
Setting up Verlet run ...
  Unit style    : lj
  Current step  : 9000
  Time step     : 0.001
Per MPI rank memory allocation (min/avg/max) = 9.833 | 9.833 | 9.833 Mbytes
Step Temp E_pair E_mol TotEng Press 
    9000            0 -0.00085947835            0 -0.00085947835 -5.3694292e-08 
    9200            0 -0.00085947835            0 -0.00085947835 -5.3694292e-08 
    9400            0 -0.00085947835            0 -0.00085947835 -5.3694292e-08 
    9600            0 -0.00085947835            0 -0.00085947835 -5.3694292e-08 
    9800            0 -0.00085947835            0 -0.00085947835 -5.3694292e-08 
   10000            0 -0.00085947835            0 -0.00085947835 -5.3694292e-08 
Loop time of 0.017921 on 1 procs for 1000 steps with 2 atoms

Performance: 4821159.528 tau/day, 55800.457 timesteps/s
0.0% CPU use with 1 MPI tasks x 1 OpenMP threads

MPI task timing breakdown:
Section |  min time  |  avg time  |  max time  |%varavg| %total
---------------------------------------------------------------
Pair    | 0.0023     | 0.0023     | 0.0023     |   0.0 | 12.83
Bond    | 0.001397   | 0.001397   | 0.001397   |   0.0 |  7.80
Neigh   | 0          | 0          | 0          |   0.0 |  0.00
Comm    | 0.002636   | 0.002636   | 0.002636   |   0.0 | 14.71
Output  | 0.003743   | 0.003743   | 0.003743   |   0.0 | 20.89
Modify  | 0.003231   | 0.003231   | 0.003231   |   0.0 | 18.03
Other   |            | 0.004614   |            |       | 25.75

Nlocal:    2 ave 2 max 2 min
Histogram: 1 0 0 0 0 0 0 0 0 0
Nghost:    0 ave 0 max 0 min
Histogram: 1 0 0 0 0 0 0 0 0 0
Neighs:    0 ave 0 max 0 min
Histogram: 1 0 0 0 0 0 0 0 0 0

Total # of neighbors = 0
Ave neighs/atom = 0
Ave special neighs/atom = 0
Neighbor list builds = 0
Dangerous builds = 0
Displacing atoms ...
Neighbor list info ...
  update every 1 steps, delay 10 steps, check yes
  max neighbors/atom: 2000, page size: 100000
  master list distance cutoff = 2.8
  ghost atom cutoff = 2.8
  binsize = 1.4, bins = 29 29 29
  7 neighbor lists, perpetual/occasional/extra = 6 1 0
  (1) pair lj/expand/twopiece, perpetual, skip from (7)
      attributes: half, newton on
      pair build: skip
      stencil: none
      bin: none
  (2) pair lj/twopiece, perpetual, skip from (7)
      attributes: half, newton on
      pair build: skip
      stencil: none
      bin: none
  (3) pair soft/shift, perpetual, skip from (7)
      attributes: half, newton on
      pair build: skip
      stencil: none
      bin: none
  (4) pair zero, perpetual, skip from (7)
      attributes: half, newton on
      pair build: skip
      stencil: none
      bin: none
  (5) pair morse, perpetual, skip from (7)
      attributes: half, newton on
      pair build: skip
      stencil: none
      bin: none
  (6) compute pair/local, occasional, copy from (7)
      attributes: half, newton on
      pair build: copy
      stencil: none
      bin: none
  (7) neighbor class addition, perpetual
      attributes: half, newton on
      pair build: half/bin/newton
      stencil: half/bin/3d/newton
      bin: standard
Setting up Verlet run ...
  Unit style    : lj
  Current step  : 10000
  Time step     : 0.001
Per MPI rank memory allocation (min/avg/max) = 9.833 | 9.833 | 9.833 Mbytes
Step Temp E_pair E_mol TotEng Press 
   10000            0 -0.00091836523            0 -0.00091836523 -5.7371447e-08 
   10200            0 -0.00091836523            0 -0.00091836523 -5.7371447e-08 
   10400            0 -0.00091836523            0 -0.00091836523 -5.7371447e-08 
   10600            0 -0.00091836523            0 -0.00091836523 -5.7371447e-08 
   10800            0 -0.00091836523            0 -0.00091836523 -5.7371447e-08 
   11000            0 -0.00091836523            0 -0.00091836523 -5.7371447e-08 
Loop time of 0.02022 on 1 procs for 1000 steps with 2 atoms

Performance: 4272997.031 tau/day, 49455.984 timesteps/s
0.0% CPU use with 1 MPI tasks x 1 OpenMP threads

MPI task timing breakdown:
Section |  min time  |  avg time  |  max time  |%varavg| %total
---------------------------------------------------------------
Pair    | 0.001906   | 0.001906   | 0.001906   |   0.0 |  9.43
Bond    | 0.002261   | 0.002261   | 0.002261   |   0.0 | 11.18
Neigh   | 0          | 0          | 0          |   0.0 |  0.00
Comm    | 0.003498   | 0.003498   | 0.003498   |   0.0 | 17.30
Output  | 0.004586   | 0.004586   | 0.004586   |   0.0 | 22.68
Modify  | 0.003177   | 0.003177   | 0.003177   |   0.0 | 15.71
Other   |            | 0.004792   |            |       | 23.70

Nlocal:    2 ave 2 max 2 min
Histogram: 1 0 0 0 0 0 0 0 0 0
Nghost:    0 ave 0 max 0 min
Histogram: 1 0 0 0 0 0 0 0 0 0
Neighs:    0 ave 0 max 0 min
Histogram: 1 0 0 0 0 0 0 0 0 0

Total # of neighbors = 0
Ave neighs/atom = 0
Ave special neighs/atom = 0
Neighbor list builds = 0
Dangerous builds = 0
Displacing atoms ...
Neighbor list info ...
  update every 1 steps, delay 10 steps, check yes
  max neighbors/atom: 2000, page size: 100000
  master list distance cutoff = 2.8
  ghost atom cutoff = 2.8
  binsize = 1.4, bins = 29 29 29
  7 neighbor lists, perpetual/occasional/extra = 6 1 0
  (1) pair lj/expand/twopiece, perpetual, skip from (7)
      attributes: half, newton on
      pair build: skip
      stencil: none
      bin: none
  (2) pair lj/twopiece, perpetual, skip from (7)
      attributes: half, newton on
      pair build: skip
      stencil: none
      bin: none
  (3) pair soft/shift, perpetual, skip from (7)
      attributes: half, newton on
      pair build: skip
      stencil: none
      bin: none
  (4) pair zero, perpetual, skip from (7)
      attributes: half, newton on
      pair build: skip
      stencil: none
      bin: none
  (5) pair morse, perpetual, skip from (7)
      attributes: half, newton on
      pair build: skip
      stencil: none
      bin: none
  (6) compute pair/local, occasional, copy from (7)
      attributes: half, newton on
      pair build: copy
      stencil: none
      bin: none
  (7) neighbor class addition, perpetual
      attributes: half, newton on
      pair build: half/bin/newton
      stencil: half/bin/3d/newton
      bin: standard
Setting up Verlet run ...
  Unit style    : lj
  Current step  : 11000
  Time step     : 0.001
Per MPI rank memory allocation (min/avg/max) = 9.833 | 9.833 | 9.833 Mbytes
Step Temp E_pair E_mol TotEng Press 
   11000            0 -0.00098201158            0 -0.00098201158 -6.1345558e-08 
   11200            0 -0.00098201158            0 -0.00098201158 -6.1345558e-08 
   11400            0 -0.00098201158            0 -0.00098201158 -6.1345558e-08 
   11600            0 -0.00098201158            0 -0.00098201158 -6.1345558e-08 
   11800            0 -0.00098201158            0 -0.00098201158 -6.1345558e-08 
   12000            0 -0.00098201158            0 -0.00098201158 -6.1345558e-08 
Loop time of 0.020072 on 1 procs for 1000 steps with 2 atoms

Performance: 4304503.790 tau/day, 49820.646 timesteps/s
0.0% CPU use with 1 MPI tasks x 1 OpenMP threads

MPI task timing breakdown:
Section |  min time  |  avg time  |  max time  |%varavg| %total
---------------------------------------------------------------
Pair    | 0.001978   | 0.001978   | 0.001978   |   0.0 |  9.85
Bond    | 0.001958   | 0.001958   | 0.001958   |   0.0 |  9.75
Neigh   | 0          | 0          | 0          |   0.0 |  0.00
Comm    | 0.003061   | 0.003061   | 0.003061   |   0.0 | 15.25
Output  | 0.005359   | 0.005359   | 0.005359   |   0.0 | 26.70
Modify  | 0.002773   | 0.002773   | 0.002773   |   0.0 | 13.82
Other   |            | 0.004943   |            |       | 24.63

Nlocal:    2 ave 2 max 2 min
Histogram: 1 0 0 0 0 0 0 0 0 0
Nghost:    0 ave 0 max 0 min
Histogram: 1 0 0 0 0 0 0 0 0 0
Neighs:    0 ave 0 max 0 min
Histogram: 1 0 0 0 0 0 0 0 0 0

Total # of neighbors = 0
Ave neighs/atom = 0
Ave special neighs/atom = 0
Neighbor list builds = 0
Dangerous builds = 0
Displacing atoms ...
Neighbor list info ...
  update every 1 steps, delay 10 steps, check yes
  max neighbors/atom: 2000, page size: 100000
  master list distance cutoff = 2.8
  ghost atom cutoff = 2.8
  binsize = 1.4, bins = 29 29 29
  7 neighbor lists, perpetual/occasional/extra = 6 1 0
  (1) pair lj/expand/twopiece, perpetual, skip from (7)
      attributes: half, newton on
      pair build: skip
      stencil: none
      bin: none
  (2) pair lj/twopiece, perpetual, skip from (7)
      attributes: half, newton on
      pair build: skip
      stencil: none
      bin: none
  (3) pair soft/shift, perpetual, skip from (7)
      attributes: half, newton on
      pair build: skip
      stencil: none
      bin: none
  (4) pair zero, perpetual, skip from (7)
      attributes: half, newton on
      pair build: skip
      stencil: none
      bin: none
  (5) pair morse, perpetual, skip from (7)
      attributes: half, newton on
      pair build: skip
      stencil: none
      bin: none
  (6) compute pair/local, occasional, copy from (7)
      attributes: half, newton on
      pair build: copy
      stencil: none
      bin: none
  (7) neighbor class addition, perpetual
      attributes: half, newton on
      pair build: half/bin/newton
      stencil: half/bin/3d/newton
      bin: standard
Setting up Verlet run ...
  Unit style    : lj
  Current step  : 12000
  Time step     : 0.001
Per MPI rank memory allocation (min/avg/max) = 9.833 | 9.833 | 9.833 Mbytes
Step Temp E_pair E_mol TotEng Press 
   12000            0 -0.0010508619            0 -0.0010508619 -6.5644322e-08 
   12200            0 -0.0010508619            0 -0.0010508619 -6.5644322e-08 
   12400            0 -0.0010508619            0 -0.0010508619 -6.5644322e-08 
   12600            0 -0.0010508619            0 -0.0010508619 -6.5644322e-08 
   12800            0 -0.0010508619            0 -0.0010508619 -6.5644322e-08 
   13000            0 -0.0010508619            0 -0.0010508619 -6.5644322e-08 
Loop time of 0.069332 on 1 procs for 1000 steps with 2 atoms

Performance: 1246177.811 tau/day, 14423.354 timesteps/s
22.5% CPU use with 1 MPI tasks x 1 OpenMP threads

MPI task timing breakdown:
Section |  min time  |  avg time  |  max time  |%varavg| %total
---------------------------------------------------------------
Pair    | 0.002252   | 0.002252   | 0.002252   |   0.0 |  3.25
Bond    | 0.002769   | 0.002769   | 0.002769   |   0.0 |  3.99
Neigh   | 0          | 0          | 0          |   0.0 |  0.00
Comm    | 0.003053   | 0.003053   | 0.003053   |   0.0 |  4.40
Output  | 0.051999   | 0.051999   | 0.051999   |   0.0 | 75.00
Modify  | 0.003947   | 0.003947   | 0.003947   |   0.0 |  5.69
Other   |            | 0.005312   |            |       |  7.66

Nlocal:    2 ave 2 max 2 min
Histogram: 1 0 0 0 0 0 0 0 0 0
Nghost:    0 ave 0 max 0 min
Histogram: 1 0 0 0 0 0 0 0 0 0
Neighs:    0 ave 0 max 0 min
Histogram: 1 0 0 0 0 0 0 0 0 0

Total # of neighbors = 0
Ave neighs/atom = 0
Ave special neighs/atom = 0
Neighbor list builds = 0
Dangerous builds = 0
Displacing atoms ...
Neighbor list info ...
  update every 1 steps, delay 10 steps, check yes
  max neighbors/atom: 2000, page size: 100000
  master list distance cutoff = 2.8
  ghost atom cutoff = 2.8
  binsize = 1.4, bins = 29 29 29
  7 neighbor lists, perpetual/occasional/extra = 6 1 0
  (1) pair lj/expand/twopiece, perpetual, skip from (7)
      attributes: half, newton on
      pair build: skip
      stencil: none
      bin: none
  (2) pair lj/twopiece, perpetual, skip from (7)
      attributes: half, newton on
      pair build: skip
      stencil: none
      bin: none
  (3) pair soft/shift, perpetual, skip from (7)
      attributes: half, newton on
      pair build: skip
      stencil: none
      bin: none
  (4) pair zero, perpetual, skip from (7)
      attributes: half, newton on
      pair build: skip
      stencil: none
      bin: none
  (5) pair morse, perpetual, skip from (7)
      attributes: half, newton on
      pair build: skip
      stencil: none
      bin: none
  (6) compute pair/local, occasional, copy from (7)
      attributes: half, newton on
      pair build: copy
      stencil: none
      bin: none
  (7) neighbor class addition, perpetual
      attributes: half, newton on
      pair build: half/bin/newton
      stencil: half/bin/3d/newton
      bin: standard
Setting up Verlet run ...
  Unit style    : lj
  Current step  : 13000
  Time step     : 0.001
Per MPI rank memory allocation (min/avg/max) = 9.833 | 9.833 | 9.833 Mbytes
Step Temp E_pair E_mol TotEng Press 
   13000            0 -0.0011254079            0 -0.0011254079 -7.0298368e-08 
   13200            0 -0.0011254079            0 -0.0011254079 -7.0298368e-08 
   13400            0 -0.0011254079            0 -0.0011254079 -7.0298368e-08 
   13600            0 -0.0011254079            0 -0.0011254079 -7.0298368e-08 
   13800            0 -0.0011254079            0 -0.0011254079 -7.0298368e-08 
   14000            0 -0.0011254079            0 -0.0011254079 -7.0298368e-08 
Loop time of 0.017755 on 1 procs for 1000 steps with 2 atoms

Performance: 4866234.853 tau/day, 56322.163 timesteps/s
88.0% CPU use with 1 MPI tasks x 1 OpenMP threads

MPI task timing breakdown:
Section |  min time  |  avg time  |  max time  |%varavg| %total
---------------------------------------------------------------
Pair    | 0.001989   | 0.001989   | 0.001989   |   0.0 | 11.20
Bond    | 0.001639   | 0.001639   | 0.001639   |   0.0 |  9.23
Neigh   | 0          | 0          | 0          |   0.0 |  0.00
Comm    | 0.002969   | 0.002969   | 0.002969   |   0.0 | 16.72
Output  | 0.0032     | 0.0032     | 0.0032     |   0.0 | 18.02
Modify  | 0.002953   | 0.002953   | 0.002953   |   0.0 | 16.63
Other   |            | 0.005005   |            |       | 28.19

Nlocal:    2 ave 2 max 2 min
Histogram: 1 0 0 0 0 0 0 0 0 0
Nghost:    0 ave 0 max 0 min
Histogram: 1 0 0 0 0 0 0 0 0 0
Neighs:    0 ave 0 max 0 min
Histogram: 1 0 0 0 0 0 0 0 0 0

Total # of neighbors = 0
Ave neighs/atom = 0
Ave special neighs/atom = 0
Neighbor list builds = 0
Dangerous builds = 0
Displacing atoms ...
Neighbor list info ...
  update every 1 steps, delay 10 steps, check yes
  max neighbors/atom: 2000, page size: 100000
  master list distance cutoff = 2.8
  ghost atom cutoff = 2.8
  binsize = 1.4, bins = 29 29 29
  7 neighbor lists, perpetual/occasional/extra = 6 1 0
  (1) pair lj/expand/twopiece, perpetual, skip from (7)
      attributes: half, newton on
      pair build: skip
      stencil: none
      bin: none
  (2) pair lj/twopiece, perpetual, skip from (7)
      attributes: half, newton on
      pair build: skip
      stencil: none
      bin: none
  (3) pair soft/shift, perpetual, skip from (7)
      attributes: half, newton on
      pair build: skip
      stencil: none
      bin: none
  (4) pair zero, perpetual, skip from (7)
      attributes: half, newton on
      pair build: skip
      stencil: none
      bin: none
  (5) pair morse, perpetual, skip from (7)
      attributes: half, newton on
      pair build: skip
      stencil: none
      bin: none
  (6) compute pair/local, occasional, copy from (7)
      attributes: half, newton on
      pair build: copy
      stencil: none
      bin: none
  (7) neighbor class addition, perpetual
      attributes: half, newton on
      pair build: half/bin/newton
      stencil: half/bin/3d/newton
      bin: standard
Setting up Verlet run ...
  Unit style    : lj
  Current step  : 14000
  Time step     : 0.001
Per MPI rank memory allocation (min/avg/max) = 9.833 | 9.833 | 9.833 Mbytes
Step Temp E_pair E_mol TotEng Press 
   14000            0 -0.001206194            0 -0.001206194 -7.5341607e-08 
   14200            0 -0.001206194            0 -0.001206194 -7.5341607e-08 
   14400            0 -0.001206194            0 -0.001206194 -7.5341607e-08 
   14600            0 -0.001206194            0 -0.001206194 -7.5341607e-08 
   14800            0 -0.001206194            0 -0.001206194 -7.5341607e-08 
   15000            0 -0.001206194            0 -0.001206194 -7.5341607e-08 
Loop time of 0.016856 on 1 procs for 1000 steps with 2 atoms

Performance: 5125771.238 tau/day, 59326.056 timesteps/s
0.0% CPU use with 1 MPI tasks x 1 OpenMP threads

MPI task timing breakdown:
Section |  min time  |  avg time  |  max time  |%varavg| %total
---------------------------------------------------------------
Pair    | 0.001568   | 0.001568   | 0.001568   |   0.0 |  9.30
Bond    | 0.001341   | 0.001341   | 0.001341   |   0.0 |  7.96
Neigh   | 0          | 0          | 0          |   0.0 |  0.00
Comm    | 0.00321    | 0.00321    | 0.00321    |   0.0 | 19.04
Output  | 0.002523   | 0.002523   | 0.002523   |   0.0 | 14.97
Modify  | 0.004441   | 0.004441   | 0.004441   |   0.0 | 26.35
Other   |            | 0.003773   |            |       | 22.38

Nlocal:    2 ave 2 max 2 min
Histogram: 1 0 0 0 0 0 0 0 0 0
Nghost:    0 ave 0 max 0 min
Histogram: 1 0 0 0 0 0 0 0 0 0
Neighs:    0 ave 0 max 0 min
Histogram: 1 0 0 0 0 0 0 0 0 0

Total # of neighbors = 0
Ave neighs/atom = 0
Ave special neighs/atom = 0
Neighbor list builds = 0
Dangerous builds = 0
Displacing atoms ...
Neighbor list info ...
  update every 1 steps, delay 10 steps, check yes
  max neighbors/atom: 2000, page size: 100000
  master list distance cutoff = 2.8
  ghost atom cutoff = 2.8
  binsize = 1.4, bins = 29 29 29
  7 neighbor lists, perpetual/occasional/extra = 6 1 0
  (1) pair lj/expand/twopiece, perpetual, skip from (7)
      attributes: half, newton on
      pair build: skip
      stencil: none
      bin: none
  (2) pair lj/twopiece, perpetual, skip from (7)
      attributes: half, newton on
      pair build: skip
      stencil: none
      bin: none
  (3) pair soft/shift, perpetual, skip from (7)
      attributes: half, newton on
      pair build: skip
      stencil: none
      bin: none
  (4) pair zero, perpetual, skip from (7)
      attributes: half, newton on
      pair build: skip
      stencil: none
      bin: none
  (5) pair morse, perpetual, skip from (7)
      attributes: half, newton on
      pair build: skip
      stencil: none
      bin: none
  (6) compute pair/local, occasional, copy from (7)
      attributes: half, newton on
      pair build: copy
      stencil: none
      bin: none
  (7) neighbor class addition, perpetual
      attributes: half, newton on
      pair build: half/bin/newton
      stencil: half/bin/3d/newton
      bin: standard
Setting up Verlet run ...
  Unit style    : lj
  Current step  : 15000
  Time step     : 0.001
Per MPI rank memory allocation (min/avg/max) = 9.833 | 9.833 | 9.833 Mbytes
Step Temp E_pair E_mol TotEng Press 
   15000            0 -0.0012938242            0 -0.0012938242 -8.0811633e-08 
   15200            0 -0.0012938242            0 -0.0012938242 -8.0811633e-08 
   15400            0 -0.0012938242            0 -0.0012938242 -8.0811633e-08 
   15600            0 -0.0012938242            0 -0.0012938242 -8.0811633e-08 
   15800            0 -0.0012938242            0 -0.0012938242 -8.0811633e-08 
   16000            0 -0.0012938242            0 -0.0012938242 -8.0811633e-08 
Loop time of 0.019854 on 1 procs for 1000 steps with 2 atoms

Performance: 4351767.916 tau/day, 50367.684 timesteps/s
0.0% CPU use with 1 MPI tasks x 1 OpenMP threads

MPI task timing breakdown:
Section |  min time  |  avg time  |  max time  |%varavg| %total
---------------------------------------------------------------
Pair    | 0.002088   | 0.002088   | 0.002088   |   0.0 | 10.52
Bond    | 0.001493   | 0.001493   | 0.001493   |   0.0 |  7.52
Neigh   | 0          | 0          | 0          |   0.0 |  0.00
Comm    | 0.003724   | 0.003724   | 0.003724   |   0.0 | 18.76
Output  | 0.00517    | 0.00517    | 0.00517    |   0.0 | 26.04
Modify  | 0.002679   | 0.002679   | 0.002679   |   0.0 | 13.49
Other   |            | 0.0047     |            |       | 23.67

Nlocal:    2 ave 2 max 2 min
Histogram: 1 0 0 0 0 0 0 0 0 0
Nghost:    0 ave 0 max 0 min
Histogram: 1 0 0 0 0 0 0 0 0 0
Neighs:    0 ave 0 max 0 min
Histogram: 1 0 0 0 0 0 0 0 0 0

Total # of neighbors = 0
Ave neighs/atom = 0
Ave special neighs/atom = 0
Neighbor list builds = 0
Dangerous builds = 0
Displacing atoms ...
Neighbor list info ...
  update every 1 steps, delay 10 steps, check yes
  max neighbors/atom: 2000, page size: 100000
  master list distance cutoff = 2.8
  ghost atom cutoff = 2.8
  binsize = 1.4, bins = 29 29 29
  7 neighbor lists, perpetual/occasional/extra = 6 1 0
  (1) pair lj/expand/twopiece, perpetual, skip from (7)
      attributes: half, newton on
      pair build: skip
      stencil: none
      bin: none
  (2) pair lj/twopiece, perpetual, skip from (7)
      attributes: half, newton on
      pair build: skip
      stencil: none
      bin: none
  (3) pair soft/shift, perpetual, skip from (7)
      attributes: half, newton on
      pair build: skip
      stencil: none
      bin: none
  (4) pair zero, perpetual, skip from (7)
      attributes: half, newton on
      pair build: skip
      stencil: none
      bin: none
  (5) pair morse, perpetual, skip from (7)
      attributes: half, newton on
      pair build: skip
      stencil: none
      bin: none
  (6) compute pair/local, occasional, copy from (7)
      attributes: half, newton on
      pair build: copy
      stencil: none
      bin: none
  (7) neighbor class addition, perpetual
      attributes: half, newton on
      pair build: half/bin/newton
      stencil: half/bin/3d/newton
      bin: standard
Setting up Verlet run ...
  Unit style    : lj
  Current step  : 16000
  Time step     : 0.001
Per MPI rank memory allocation (min/avg/max) = 9.833 | 9.833 | 9.833 Mbytes
Step Temp E_pair E_mol TotEng Press 
   16000            0 -0.0013889685            0 -0.0013889685 -8.6750161e-08 
   16200            0 -0.0013889685            0 -0.0013889685 -8.6750161e-08 
   16400            0 -0.0013889685            0 -0.0013889685 -8.6750161e-08 
   16600            0 -0.0013889685            0 -0.0013889685 -8.6750161e-08 
   16800            0 -0.0013889685            0 -0.0013889685 -8.6750161e-08 
   17000            0 -0.0013889685            0 -0.0013889685 -8.6750161e-08 
Loop time of 0.021755 on 1 procs for 1000 steps with 2 atoms

Performance: 3971500.805 tau/day, 45966.445 timesteps/s
0.0% CPU use with 1 MPI tasks x 1 OpenMP threads

MPI task timing breakdown:
Section |  min time  |  avg time  |  max time  |%varavg| %total
---------------------------------------------------------------
Pair    | 0.002137   | 0.002137   | 0.002137   |   0.0 |  9.82
Bond    | 0.001429   | 0.001429   | 0.001429   |   0.0 |  6.57
Neigh   | 0          | 0          | 0          |   0.0 |  0.00
Comm    | 0.003495   | 0.003495   | 0.003495   |   0.0 | 16.07
Output  | 0.007098   | 0.007098   | 0.007098   |   0.0 | 32.63
Modify  | 0.002613   | 0.002613   | 0.002613   |   0.0 | 12.01
Other   |            | 0.004983   |            |       | 22.91

Nlocal:    2 ave 2 max 2 min
Histogram: 1 0 0 0 0 0 0 0 0 0
Nghost:    0 ave 0 max 0 min
Histogram: 1 0 0 0 0 0 0 0 0 0
Neighs:    0 ave 0 max 0 min
Histogram: 1 0 0 0 0 0 0 0 0 0

Total # of neighbors = 0
Ave neighs/atom = 0
Ave special neighs/atom = 0
Neighbor list builds = 0
Dangerous builds = 0
Displacing atoms ...
Neighbor list info ...
  update every 1 steps, delay 10 steps, check yes
  max neighbors/atom: 2000, page size: 100000
  master list distance cutoff = 2.8
  ghost atom cutoff = 2.8
  binsize = 1.4, bins = 29 29 29
  7 neighbor lists, perpetual/occasional/extra = 6 1 0
  (1) pair lj/expand/twopiece, perpetual, skip from (7)
      attributes: half, newton on
      pair build: skip
      stencil: none
      bin: none
  (2) pair lj/twopiece, perpetual, skip from (7)
      attributes: half, newton on
      pair build: skip
      stencil: none
      bin: none
  (3) pair soft/shift, perpetual, skip from (7)
      attributes: half, newton on
      pair build: skip
      stencil: none
      bin: none
  (4) pair zero, perpetual, skip from (7)
      attributes: half, newton on
      pair build: skip
      stencil: none
      bin: none
  (5) pair morse, perpetual, skip from (7)
      attributes: half, newton on
      pair build: skip
      stencil: none
      bin: none
  (6) compute pair/local, occasional, copy from (7)
      attributes: half, newton on
      pair build: copy
      stencil: none
      bin: none
  (7) neighbor class addition, perpetual
      attributes: half, newton on
      pair build: half/bin/newton
      stencil: half/bin/3d/newton
      bin: standard
Setting up Verlet run ...
  Unit style    : lj
  Current step  : 17000
  Time step     : 0.001
Per MPI rank memory allocation (min/avg/max) = 9.833 | 9.833 | 9.833 Mbytes
Step Temp E_pair E_mol TotEng Press 
   17000            0 -0.0014923719            0 -0.0014923719 -9.3203541e-08 
   17200            0 -0.0014923719            0 -0.0014923719 -9.3203541e-08 
   17400            0 -0.0014923719            0 -0.0014923719 -9.3203541e-08 
   17600            0 -0.0014923719            0 -0.0014923719 -9.3203541e-08 
   17800            0 -0.0014923719            0 -0.0014923719 -9.3203541e-08 
   18000            0 -0.0014923719            0 -0.0014923719 -9.3203541e-08 
Loop time of 0.035501 on 1 procs for 1000 steps with 2 atoms

Performance: 2433734.265 tau/day, 28168.221 timesteps/s
0.0% CPU use with 1 MPI tasks x 1 OpenMP threads

MPI task timing breakdown:
Section |  min time  |  avg time  |  max time  |%varavg| %total
---------------------------------------------------------------
Pair    | 0.003127   | 0.003127   | 0.003127   |   0.0 |  8.81
Bond    | 0.001938   | 0.001938   | 0.001938   |   0.0 |  5.46
Neigh   | 0          | 0          | 0          |   0.0 |  0.00
Comm    | 0.003624   | 0.003624   | 0.003624   |   0.0 | 10.21
Output  | 0.018281   | 0.018281   | 0.018281   |   0.0 | 51.49
Modify  | 0.003239   | 0.003239   | 0.003239   |   0.0 |  9.12
Other   |            | 0.005292   |            |       | 14.91

Nlocal:    2 ave 2 max 2 min
Histogram: 1 0 0 0 0 0 0 0 0 0
Nghost:    0 ave 0 max 0 min
Histogram: 1 0 0 0 0 0 0 0 0 0
Neighs:    0 ave 0 max 0 min
Histogram: 1 0 0 0 0 0 0 0 0 0

Total # of neighbors = 0
Ave neighs/atom = 0
Ave special neighs/atom = 0
Neighbor list builds = 0
Dangerous builds = 0
Displacing atoms ...
Neighbor list info ...
  update every 1 steps, delay 10 steps, check yes
  max neighbors/atom: 2000, page size: 100000
  master list distance cutoff = 2.8
  ghost atom cutoff = 2.8
  binsize = 1.4, bins = 29 29 29
  7 neighbor lists, perpetual/occasional/extra = 6 1 0
  (1) pair lj/expand/twopiece, perpetual, skip from (7)
      attributes: half, newton on
      pair build: skip
      stencil: none
      bin: none
  (2) pair lj/twopiece, perpetual, skip from (7)
      attributes: half, newton on
      pair build: skip
      stencil: none
      bin: none
  (3) pair soft/shift, perpetual, skip from (7)
      attributes: half, newton on
      pair build: skip
      stencil: none
      bin: none
  (4) pair zero, perpetual, skip from (7)
      attributes: half, newton on
      pair build: skip
      stencil: none
      bin: none
  (5) pair morse, perpetual, skip from (7)
      attributes: half, newton on
      pair build: skip
      stencil: none
      bin: none
  (6) compute pair/local, occasional, copy from (7)
      attributes: half, newton on
      pair build: copy
      stencil: none
      bin: none
  (7) neighbor class addition, perpetual
      attributes: half, newton on
      pair build: half/bin/newton
      stencil: half/bin/3d/newton
      bin: standard
Setting up Verlet run ...
  Unit style    : lj
  Current step  : 18000
  Time step     : 0.001
Per MPI rank memory allocation (min/avg/max) = 9.833 | 9.833 | 9.833 Mbytes
Step Temp E_pair E_mol TotEng Press 
   18000            0 -0.0016048632            0 -0.0016048632 -1.0022333e-07 
   18200            0 -0.0016048632            0 -0.0016048632 -1.0022333e-07 
   18400            0 -0.0016048632            0 -0.0016048632 -1.0022333e-07 
   18600            0 -0.0016048632            0 -0.0016048632 -1.0022333e-07 
   18800            0 -0.0016048632            0 -0.0016048632 -1.0022333e-07 
   19000            0 -0.0016048632            0 -0.0016048632 -1.0022333e-07 
Loop time of 0.140608 on 1 procs for 1000 steps with 2 atoms

Performance: 614474.283 tau/day, 7111.971 timesteps/s
11.1% CPU use with 1 MPI tasks x 1 OpenMP threads

MPI task timing breakdown:
Section |  min time  |  avg time  |  max time  |%varavg| %total
---------------------------------------------------------------
Pair    | 0.003533   | 0.003533   | 0.003533   |   0.0 |  2.51
Bond    | 0.001576   | 0.001576   | 0.001576   |   0.0 |  1.12
Neigh   | 0          | 0          | 0          |   0.0 |  0.00
Comm    | 0.004078   | 0.004078   | 0.004078   |   0.0 |  2.90
Output  | 0.12219    | 0.12219    | 0.12219    |   0.0 | 86.90
Modify  | 0.003447   | 0.003447   | 0.003447   |   0.0 |  2.45
Other   |            | 0.005782   |            |       |  4.11

Nlocal:    2 ave 2 max 2 min
Histogram: 1 0 0 0 0 0 0 0 0 0
Nghost:    0 ave 0 max 0 min
Histogram: 1 0 0 0 0 0 0 0 0 0
Neighs:    0 ave 0 max 0 min
Histogram: 1 0 0 0 0 0 0 0 0 0

Total # of neighbors = 0
Ave neighs/atom = 0
Ave special neighs/atom = 0
Neighbor list builds = 0
Dangerous builds = 0
Displacing atoms ...
Neighbor list info ...
  update every 1 steps, delay 10 steps, check yes
  max neighbors/atom: 2000, page size: 100000
  master list distance cutoff = 2.8
  ghost atom cutoff = 2.8
  binsize = 1.4, bins = 29 29 29
  7 neighbor lists, perpetual/occasional/extra = 6 1 0
  (1) pair lj/expand/twopiece, perpetual, skip from (7)
      attributes: half, newton on
      pair build: skip
      stencil: none
      bin: none
  (2) pair lj/twopiece, perpetual, skip from (7)
      attributes: half, newton on
      pair build: skip
      stencil: none
      bin: none
  (3) pair soft/shift, perpetual, skip from (7)
      attributes: half, newton on
      pair build: skip
      stencil: none
      bin: none
  (4) pair zero, perpetual, skip from (7)
      attributes: half, newton on
      pair build: skip
      stencil: none
      bin: none
  (5) pair morse, perpetual, skip from (7)
      attributes: half, newton on
      pair build: skip
      stencil: none
      bin: none
  (6) compute pair/local, occasional, copy from (7)
      attributes: half, newton on
      pair build: copy
      stencil: none
      bin: none
  (7) neighbor class addition, perpetual
      attributes: half, newton on
      pair build: half/bin/newton
      stencil: half/bin/3d/newton
      bin: standard
Setting up Verlet run ...
  Unit style    : lj
  Current step  : 19000
  Time step     : 0.001
Per MPI rank memory allocation (min/avg/max) = 9.833 | 9.833 | 9.833 Mbytes
Step Temp E_pair E_mol TotEng Press 
   19000            0 -0.001727366            0 -0.001727366 -1.0786697e-07 
   19200            0 -0.001727366            0 -0.001727366 -1.0786697e-07 
   19400            0 -0.001727366            0 -0.001727366 -1.0786697e-07 
   19600            0 -0.001727366            0 -0.001727366 -1.0786697e-07 
   19800            0 -0.001727366            0 -0.001727366 -1.0786697e-07 
   20000            0 -0.001727366            0 -0.001727366 -1.0786697e-07 
Loop time of 0.016501 on 1 procs for 1000 steps with 2 atoms

Performance: 5236046.289 tau/day, 60602.388 timesteps/s
94.7% CPU use with 1 MPI tasks x 1 OpenMP threads

MPI task timing breakdown:
Section |  min time  |  avg time  |  max time  |%varavg| %total
---------------------------------------------------------------
Pair    | 0.001888   | 0.001888   | 0.001888   |   0.0 | 11.44
Bond    | 0.001507   | 0.001507   | 0.001507   |   0.0 |  9.13
Neigh   | 0          | 0          | 0          |   0.0 |  0.00
Comm    | 0.002805   | 0.002805   | 0.002805   |   0.0 | 17.00
Output  | 0.002894   | 0.002894   | 0.002894   |   0.0 | 17.54
Modify  | 0.002869   | 0.002869   | 0.002869   |   0.0 | 17.39
Other   |            | 0.004538   |            |       | 27.50

Nlocal:    2 ave 2 max 2 min
Histogram: 1 0 0 0 0 0 0 0 0 0
Nghost:    0 ave 0 max 0 min
Histogram: 1 0 0 0 0 0 0 0 0 0
Neighs:    0 ave 0 max 0 min
Histogram: 1 0 0 0 0 0 0 0 0 0

Total # of neighbors = 0
Ave neighs/atom = 0
Ave special neighs/atom = 0
Neighbor list builds = 0
Dangerous builds = 0
Displacing atoms ...
Neighbor list info ...
  update every 1 steps, delay 10 steps, check yes
  max neighbors/atom: 2000, page size: 100000
  master list distance cutoff = 2.8
  ghost atom cutoff = 2.8
  binsize = 1.4, bins = 29 29 29
  7 neighbor lists, perpetual/occasional/extra = 6 1 0
  (1) pair lj/expand/twopiece, perpetual, skip from (7)
      attributes: half, newton on
      pair build: skip
      stencil: none
      bin: none
  (2) pair lj/twopiece, perpetual, skip from (7)
      attributes: half, newton on
      pair build: skip
      stencil: none
      bin: none
  (3) pair soft/shift, perpetual, skip from (7)
      attributes: half, newton on
      pair build: skip
      stencil: none
      bin: none
  (4) pair zero, perpetual, skip from (7)
      attributes: half, newton on
      pair build: skip
      stencil: none
      bin: none
  (5) pair morse, perpetual, skip from (7)
      attributes: half, newton on
      pair build: skip
      stencil: none
      bin: none
  (6) compute pair/local, occasional, copy from (7)
      attributes: half, newton on
      pair build: copy
      stencil: none
      bin: none
  (7) neighbor class addition, perpetual
      attributes: half, newton on
      pair build: half/bin/newton
      stencil: half/bin/3d/newton
      bin: standard
Setting up Verlet run ...
  Unit style    : lj
  Current step  : 20000
  Time step     : 0.001
Per MPI rank memory allocation (min/avg/max) = 9.833 | 9.833 | 9.833 Mbytes
Step Temp E_pair E_mol TotEng Press 
   20000            0 -0.0018609104            0 -0.0018609104 -1.1619848e-07 
   20200            0 -0.0018609104            0 -0.0018609104 -1.1619848e-07 
   20400            0 -0.0018609104            0 -0.0018609104 -1.1619848e-07 
   20600            0 -0.0018609104            0 -0.0018609104 -1.1619848e-07 
   20800            0 -0.0018609104            0 -0.0018609104 -1.1619848e-07 
   21000            0 -0.0018609104            0 -0.0018609104 -1.1619848e-07 
Loop time of 0.022583 on 1 procs for 1000 steps with 2 atoms

Performance: 3825886.727 tau/day, 44281.096 timesteps/s
69.2% CPU use with 1 MPI tasks x 1 OpenMP threads

MPI task timing breakdown:
Section |  min time  |  avg time  |  max time  |%varavg| %total
---------------------------------------------------------------
Pair    | 0.002787   | 0.002787   | 0.002787   |   0.0 | 12.34
Bond    | 0.002071   | 0.002071   | 0.002071   |   0.0 |  9.17
Neigh   | 0          | 0          | 0          |   0.0 |  0.00
Comm    | 0.002718   | 0.002718   | 0.002718   |   0.0 | 12.04
Output  | 0.004589   | 0.004589   | 0.004589   |   0.0 | 20.32
Modify  | 0.004552   | 0.004552   | 0.004552   |   0.0 | 20.16
Other   |            | 0.005866   |            |       | 25.98

Nlocal:    2 ave 2 max 2 min
Histogram: 1 0 0 0 0 0 0 0 0 0
Nghost:    0 ave 0 max 0 min
Histogram: 1 0 0 0 0 0 0 0 0 0
Neighs:    0 ave 0 max 0 min
Histogram: 1 0 0 0 0 0 0 0 0 0

Total # of neighbors = 0
Ave neighs/atom = 0
Ave special neighs/atom = 0
Neighbor list builds = 0
Dangerous builds = 0
Displacing atoms ...
Neighbor list info ...
  update every 1 steps, delay 10 steps, check yes
  max neighbors/atom: 2000, page size: 100000
  master list distance cutoff = 2.8
  ghost atom cutoff = 2.8
  binsize = 1.4, bins = 29 29 29
  7 neighbor lists, perpetual/occasional/extra = 6 1 0
  (1) pair lj/expand/twopiece, perpetual, skip from (7)
      attributes: half, newton on
      pair build: skip
      stencil: none
      bin: none
  (2) pair lj/twopiece, perpetual, skip from (7)
      attributes: half, newton on
      pair build: skip
      stencil: none
      bin: none
  (3) pair soft/shift, perpetual, skip from (7)
      attributes: half, newton on
      pair build: skip
      stencil: none
      bin: none
  (4) pair zero, perpetual, skip from (7)
      attributes: half, newton on
      pair build: skip
      stencil: none
      bin: none
  (5) pair morse, perpetual, skip from (7)
      attributes: half, newton on
      pair build: skip
      stencil: none
      bin: none
  (6) compute pair/local, occasional, copy from (7)
      attributes: half, newton on
      pair build: copy
      stencil: none
      bin: none
  (7) neighbor class addition, perpetual
      attributes: half, newton on
      pair build: half/bin/newton
      stencil: half/bin/3d/newton
      bin: standard
Setting up Verlet run ...
  Unit style    : lj
  Current step  : 21000
  Time step     : 0.001
Per MPI rank memory allocation (min/avg/max) = 9.833 | 9.833 | 9.833 Mbytes
Step Temp E_pair E_mol TotEng Press 
   21000            0 -0.0020066476            0 -0.0020066476 -1.2528939e-07 
   21200            0 -0.0020066476            0 -0.0020066476 -1.2528939e-07 
   21400            0 -0.0020066476            0 -0.0020066476 -1.2528939e-07 
   21600            0 -0.0020066476            0 -0.0020066476 -1.2528939e-07 
   21800            0 -0.0020066476            0 -0.0020066476 -1.2528939e-07 
   22000            0 -0.0020066476            0 -0.0020066476 -1.2528939e-07 
Loop time of 0.021469 on 1 procs for 1000 steps with 2 atoms

Performance: 4024407.280 tau/day, 46578.788 timesteps/s
72.8% CPU use with 1 MPI tasks x 1 OpenMP threads

MPI task timing breakdown:
Section |  min time  |  avg time  |  max time  |%varavg| %total
---------------------------------------------------------------
Pair    | 0.003643   | 0.003643   | 0.003643   |   0.0 | 16.97
Bond    | 0.001943   | 0.001943   | 0.001943   |   0.0 |  9.05
Neigh   | 0          | 0          | 0          |   0.0 |  0.00
Comm    | 0.003387   | 0.003387   | 0.003387   |   0.0 | 15.78
Output  | 0.003384   | 0.003384   | 0.003384   |   0.0 | 15.76
Modify  | 0.003532   | 0.003532   | 0.003532   |   0.0 | 16.45
Other   |            | 0.00558    |            |       | 25.99

Nlocal:    2 ave 2 max 2 min
Histogram: 1 0 0 0 0 0 0 0 0 0
Nghost:    0 ave 0 max 0 min
Histogram: 1 0 0 0 0 0 0 0 0 0
Neighs:    0 ave 0 max 0 min
Histogram: 1 0 0 0 0 0 0 0 0 0

Total # of neighbors = 0
Ave neighs/atom = 0
Ave special neighs/atom = 0
Neighbor list builds = 0
Dangerous builds = 0
Displacing atoms ...
Neighbor list info ...
  update every 1 steps, delay 10 steps, check yes
  max neighbors/atom: 2000, page size: 100000
  master list distance cutoff = 2.8
  ghost atom cutoff = 2.8
  binsize = 1.4, bins = 29 29 29
  7 neighbor lists, perpetual/occasional/extra = 6 1 0
  (1) pair lj/expand/twopiece, perpetual, skip from (7)
      attributes: half, newton on
      pair build: skip
      stencil: none
      bin: none
  (2) pair lj/twopiece, perpetual, skip from (7)
      attributes: half, newton on
      pair build: skip
      stencil: none
      bin: none
  (3) pair soft/shift, perpetual, skip from (7)
      attributes: half, newton on
      pair build: skip
      stencil: none
      bin: none
  (4) pair zero, perpetual, skip from (7)
      attributes: half, newton on
      pair build: skip
      stencil: none
      bin: none
  (5) pair morse, perpetual, skip from (7)
      attributes: half, newton on
      pair build: skip
      stencil: none
      bin: none
  (6) compute pair/local, occasional, copy from (7)
      attributes: half, newton on
      pair build: copy
      stencil: none
      bin: none
  (7) neighbor class addition, perpetual
      attributes: half, newton on
      pair build: half/bin/newton
      stencil: half/bin/3d/newton
      bin: standard
Setting up Verlet run ...
  Unit style    : lj
  Current step  : 22000
  Time step     : 0.001
Per MPI rank memory allocation (min/avg/max) = 9.833 | 9.833 | 9.833 Mbytes
Step Temp E_pair E_mol TotEng Press 
   22000            0 -0.0021658649            0 -0.0021658649 -1.3521964e-07 
   22200            0 -0.0021658649            0 -0.0021658649 -1.3521964e-07 
   22400            0 -0.0021658649            0 -0.0021658649 -1.3521964e-07 
   22600            0 -0.0021658649            0 -0.0021658649 -1.3521964e-07 
   22800            0 -0.0021658649            0 -0.0021658649 -1.3521964e-07 
   23000            0 -0.0021658649            0 -0.0021658649 -1.3521964e-07 
Loop time of 0.020089 on 1 procs for 1000 steps with 2 atoms

Performance: 4300861.168 tau/day, 49778.486 timesteps/s
0.0% CPU use with 1 MPI tasks x 1 OpenMP threads

MPI task timing breakdown:
Section |  min time  |  avg time  |  max time  |%varavg| %total
---------------------------------------------------------------
Pair    | 0.002298   | 0.002298   | 0.002298   |   0.0 | 11.44
Bond    | 0.001544   | 0.001544   | 0.001544   |   0.0 |  7.69
Neigh   | 0          | 0          | 0          |   0.0 |  0.00
Comm    | 0.003155   | 0.003155   | 0.003155   |   0.0 | 15.71
Output  | 0.004318   | 0.004318   | 0.004318   |   0.0 | 21.49
Modify  | 0.002991   | 0.002991   | 0.002991   |   0.0 | 14.89
Other   |            | 0.005783   |            |       | 28.79

Nlocal:    2 ave 2 max 2 min
Histogram: 1 0 0 0 0 0 0 0 0 0
Nghost:    0 ave 0 max 0 min
Histogram: 1 0 0 0 0 0 0 0 0 0
Neighs:    0 ave 0 max 0 min
Histogram: 1 0 0 0 0 0 0 0 0 0

Total # of neighbors = 0
Ave neighs/atom = 0
Ave special neighs/atom = 0
Neighbor list builds = 0
Dangerous builds = 0
Displacing atoms ...
Neighbor list info ...
  update every 1 steps, delay 10 steps, check yes
  max neighbors/atom: 2000, page size: 100000
  master list distance cutoff = 2.8
  ghost atom cutoff = 2.8
  binsize = 1.4, bins = 29 29 29
  7 neighbor lists, perpetual/occasional/extra = 6 1 0
  (1) pair lj/expand/twopiece, perpetual, skip from (7)
      attributes: half, newton on
      pair build: skip
      stencil: none
      bin: none
  (2) pair lj/twopiece, perpetual, skip from (7)
      attributes: half, newton on
      pair build: skip
      stencil: none
      bin: none
  (3) pair soft/shift, perpetual, skip from (7)
      attributes: half, newton on
      pair build: skip
      stencil: none
      bin: none
  (4) pair zero, perpetual, skip from (7)
      attributes: half, newton on
      pair build: skip
      stencil: none
      bin: none
  (5) pair morse, perpetual, skip from (7)
      attributes: half, newton on
      pair build: skip
      stencil: none
      bin: none
  (6) compute pair/local, occasional, copy from (7)
      attributes: half, newton on
      pair build: copy
      stencil: none
      bin: none
  (7) neighbor class addition, perpetual
      attributes: half, newton on
      pair build: half/bin/newton
      stencil: half/bin/3d/newton
      bin: standard
Setting up Verlet run ...
  Unit style    : lj
  Current step  : 23000
  Time step     : 0.001
Per MPI rank memory allocation (min/avg/max) = 9.833 | 9.833 | 9.833 Mbytes
Step Temp E_pair E_mol TotEng Press 
   23000            0 -0.0023400044            0 -0.0023400044 -1.4607876e-07 
   23200            0 -0.0023400044            0 -0.0023400044 -1.4607876e-07 
   23400            0 -0.0023400044            0 -0.0023400044 -1.4607876e-07 
   23600            0 -0.0023400044            0 -0.0023400044 -1.4607876e-07 
   23800            0 -0.0023400044            0 -0.0023400044 -1.4607876e-07 
   24000            0 -0.0023400044            0 -0.0023400044 -1.4607876e-07 
Loop time of 0.016572 on 1 procs for 1000 steps with 2 atoms

Performance: 5213613.326 tau/day, 60342.747 timesteps/s
94.3% CPU use with 1 MPI tasks x 1 OpenMP threads

MPI task timing breakdown:
Section |  min time  |  avg time  |  max time  |%varavg| %total
---------------------------------------------------------------
Pair    | 0.001987   | 0.001987   | 0.001987   |   0.0 | 11.99
Bond    | 0.001529   | 0.001529   | 0.001529   |   0.0 |  9.23
Neigh   | 0          | 0          | 0          |   0.0 |  0.00
Comm    | 0.002778   | 0.002778   | 0.002778   |   0.0 | 16.76
Output  | 0.003141   | 0.003141   | 0.003141   |   0.0 | 18.95
Modify  | 0.00272    | 0.00272    | 0.00272    |   0.0 | 16.41
Other   |            | 0.004417   |            |       | 26.65

Nlocal:    2 ave 2 max 2 min
Histogram: 1 0 0 0 0 0 0 0 0 0
Nghost:    0 ave 0 max 0 min
Histogram: 1 0 0 0 0 0 0 0 0 0
Neighs:    0 ave 0 max 0 min
Histogram: 1 0 0 0 0 0 0 0 0 0

Total # of neighbors = 0
Ave neighs/atom = 0
Ave special neighs/atom = 0
Neighbor list builds = 0
Dangerous builds = 0
Displacing atoms ...
Neighbor list info ...
  update every 1 steps, delay 10 steps, check yes
  max neighbors/atom: 2000, page size: 100000
  master list distance cutoff = 2.8
  ghost atom cutoff = 2.8
  binsize = 1.4, bins = 29 29 29
  7 neighbor lists, perpetual/occasional/extra = 6 1 0
  (1) pair lj/expand/twopiece, perpetual, skip from (7)
      attributes: half, newton on
      pair build: skip
      stencil: none
      bin: none
  (2) pair lj/twopiece, perpetual, skip from (7)
      attributes: half, newton on
      pair build: skip
      stencil: none
      bin: none
  (3) pair soft/shift, perpetual, skip from (7)
      attributes: half, newton on
      pair build: skip
      stencil: none
      bin: none
  (4) pair zero, perpetual, skip from (7)
      attributes: half, newton on
      pair build: skip
      stencil: none
      bin: none
  (5) pair morse, perpetual, skip from (7)
      attributes: half, newton on
      pair build: skip
      stencil: none
      bin: none
  (6) compute pair/local, occasional, copy from (7)
      attributes: half, newton on
      pair build: copy
      stencil: none
      bin: none
  (7) neighbor class addition, perpetual
      attributes: half, newton on
      pair build: half/bin/newton
      stencil: half/bin/3d/newton
      bin: standard
Setting up Verlet run ...
  Unit style    : lj
  Current step  : 24000
  Time step     : 0.001
Per MPI rank memory allocation (min/avg/max) = 9.833 | 9.833 | 9.833 Mbytes
Step Temp E_pair E_mol TotEng Press 
   24000            0 -0.002530684            0 -0.002530684 -1.579671e-07 
   24200            0 -0.002530684            0 -0.002530684 -1.579671e-07 
   24400            0 -0.002530684            0 -0.002530684 -1.579671e-07 
   24600            0 -0.002530684            0 -0.002530684 -1.579671e-07 
   24800            0 -0.002530684            0 -0.002530684 -1.579671e-07 
   25000            0 -0.002530684            0 -0.002530684 -1.579671e-07 
Loop time of 0.01745 on 1 procs for 1000 steps with 2 atoms

Performance: 4951289.403 tau/day, 57306.590 timesteps/s
0.0% CPU use with 1 MPI tasks x 1 OpenMP threads

MPI task timing breakdown:
Section |  min time  |  avg time  |  max time  |%varavg| %total
---------------------------------------------------------------
Pair    | 0.001938   | 0.001938   | 0.001938   |   0.0 | 11.11
Bond    | 0.001784   | 0.001784   | 0.001784   |   0.0 | 10.22
Neigh   | 0          | 0          | 0          |   0.0 |  0.00
Comm    | 0.002674   | 0.002674   | 0.002674   |   0.0 | 15.32
Output  | 0.004018   | 0.004018   | 0.004018   |   0.0 | 23.03
Modify  | 0.002621   | 0.002621   | 0.002621   |   0.0 | 15.02
Other   |            | 0.004415   |            |       | 25.30

Nlocal:    2 ave 2 max 2 min
Histogram: 1 0 0 0 0 0 0 0 0 0
Nghost:    0 ave 0 max 0 min
Histogram: 1 0 0 0 0 0 0 0 0 0
Neighs:    0 ave 0 max 0 min
Histogram: 1 0 0 0 0 0 0 0 0 0

Total # of neighbors = 0
Ave neighs/atom = 0
Ave special neighs/atom = 0
Neighbor list builds = 0
Dangerous builds = 0
Displacing atoms ...
Neighbor list info ...
  update every 1 steps, delay 10 steps, check yes
  max neighbors/atom: 2000, page size: 100000
  master list distance cutoff = 2.8
  ghost atom cutoff = 2.8
  binsize = 1.4, bins = 29 29 29
  7 neighbor lists, perpetual/occasional/extra = 6 1 0
  (1) pair lj/expand/twopiece, perpetual, skip from (7)
      attributes: half, newton on
      pair build: skip
      stencil: none
      bin: none
  (2) pair lj/twopiece, perpetual, skip from (7)
      attributes: half, newton on
      pair build: skip
      stencil: none
      bin: none
  (3) pair soft/shift, perpetual, skip from (7)
      attributes: half, newton on
      pair build: skip
      stencil: none
      bin: none
  (4) pair zero, perpetual, skip from (7)
      attributes: half, newton on
      pair build: skip
      stencil: none
      bin: none
  (5) pair morse, perpetual, skip from (7)
      attributes: half, newton on
      pair build: skip
      stencil: none
      bin: none
  (6) compute pair/local, occasional, copy from (7)
      attributes: half, newton on
      pair build: copy
      stencil: none
      bin: none
  (7) neighbor class addition, perpetual
      attributes: half, newton on
      pair build: half/bin/newton
      stencil: half/bin/3d/newton
      bin: standard
Setting up Verlet run ...
  Unit style    : lj
  Current step  : 25000
  Time step     : 0.001
Per MPI rank memory allocation (min/avg/max) = 9.833 | 9.833 | 9.833 Mbytes
Step Temp E_pair E_mol TotEng Press 
   25000            0 -0.0027397209            0 -0.0027397209 -1.7099734e-07 
   25200            0 -0.0027397209            0 -0.0027397209 -1.7099734e-07 
   25400            0 -0.0027397209            0 -0.0027397209 -1.7099734e-07 
   25600            0 -0.0027397209            0 -0.0027397209 -1.7099734e-07 
   25800            0 -0.0027397209            0 -0.0027397209 -1.7099734e-07 
   26000            0 -0.0027397209            0 -0.0027397209 -1.7099734e-07 
Loop time of 0.03726 on 1 procs for 1000 steps with 2 atoms

Performance: 2318840.579 tau/day, 26838.433 timesteps/s
41.9% CPU use with 1 MPI tasks x 1 OpenMP threads

MPI task timing breakdown:
Section |  min time  |  avg time  |  max time  |%varavg| %total
---------------------------------------------------------------
Pair    | 0.002844   | 0.002844   | 0.002844   |   0.0 |  7.63
Bond    | 0.002533   | 0.002533   | 0.002533   |   0.0 |  6.80
Neigh   | 0          | 0          | 0          |   0.0 |  0.00
Comm    | 0.003866   | 0.003866   | 0.003866   |   0.0 | 10.38
Output  | 0.006672   | 0.006672   | 0.006672   |   0.0 | 17.91
Modify  | 0.010173   | 0.010173   | 0.010173   |   0.0 | 27.30
Other   |            | 0.01117    |            |       | 29.98

Nlocal:    2 ave 2 max 2 min
Histogram: 1 0 0 0 0 0 0 0 0 0
Nghost:    0 ave 0 max 0 min
Histogram: 1 0 0 0 0 0 0 0 0 0
Neighs:    0 ave 0 max 0 min
Histogram: 1 0 0 0 0 0 0 0 0 0

Total # of neighbors = 0
Ave neighs/atom = 0
Ave special neighs/atom = 0
Neighbor list builds = 0
Dangerous builds = 0
Displacing atoms ...
[...]
      stencil: half/bin/3d/newton
      bin: standard
Setting up Verlet run ...
  Unit style    : lj
  Current step  : 74000
  Time step     : 0.001
Per MPI rank memory allocation (min/avg/max) = 9.833 | 9.833 | 9.833 Mbytes
Step Temp E_pair E_mol TotEng Press 
   74000            0  -0.33143495            0  -0.33143495 5.7359947e-05 
   74200            0  -0.33143495            0  -0.33143495 5.7359947e-05 
   74400            0  -0.33143495            0  -0.33143495 5.7359947e-05 
   74600            0  -0.33143495            0  -0.33143495 5.7359947e-05 
   74800            0  -0.33143495            0  -0.33143495 5.7359947e-05 
   75000            0  -0.33143495            0  -0.33143495 5.7359947e-05 
Loop time of 0.0158 on 1 procs for 1000 steps with 2 atoms

Performance: 5468354.412 tau/day, 63291.139 timesteps/s
0.0% CPU use with 1 MPI tasks x 1 OpenMP threads

MPI task timing breakdown:
Section |  min time  |  avg time  |  max time  |%varavg| %total
---------------------------------------------------------------
Pair    | 0.001712   | 0.001712   | 0.001712   |   0.0 | 10.84
Bond    | 0.001378   | 0.001378   | 0.001378   |   0.0 |  8.72
Neigh   | 0          | 0          | 0          |   0.0 |  0.00
Comm    | 0.00256    | 0.00256    | 0.00256    |   0.0 | 16.20
Output  | 0.00301    | 0.00301    | 0.00301    |   0.0 | 19.05
Modify  | 0.002827   | 0.002827   | 0.002827   |   0.0 | 17.89
Other   |            | 0.004313   |            |       | 27.30

Nlocal:    2 ave 2 max 2 min
Histogram: 1 0 0 0 0 0 0 0 0 0
Nghost:    0 ave 0 max 0 min
Histogram: 1 0 0 0 0 0 0 0 0 0
Neighs:    0 ave 0 max 0 min
Histogram: 1 0 0 0 0 0 0 0 0 0

Total # of neighbors = 0
Ave neighs/atom = 0
Ave special neighs/atom = 0
Neighbor list builds = 0
Dangerous builds = 0
Displacing atoms ...
Neighbor list info ...
  update every 1 steps, delay 10 steps, check yes
  max neighbors/atom: 2000, page size: 100000
  master list distance cutoff = 2.8
  ghost atom cutoff = 2.8
  binsize = 1.4, bins = 29 29 29
  7 neighbor lists, perpetual/occasional/extra = 6 1 0
  (1) pair lj/expand/twopiece, perpetual, skip from (7)
      attributes: half, newton on
      pair build: skip
      stencil: none
      bin: none
  (2) pair lj/twopiece, perpetual, skip from (7)
      attributes: half, newton on
      pair build: skip
      stencil: none
      bin: none
  (3) pair soft/shift, perpetual, skip from (7)
      attributes: half, newton on
      pair build: skip
      stencil: none
      bin: none
  (4) pair zero, perpetual, skip from (7)
      attributes: half, newton on
      pair build: skip
      stencil: none
      bin: none
  (5) pair morse, perpetual, skip from (7)
      attributes: half, newton on
      pair build: skip
      stencil: none
      bin: none
  (6) compute pair/local, occasional, copy from (7)
      attributes: half, newton on
      pair build: copy
      stencil: none
      bin: none
  (7) neighbor class addition, perpetual
      attributes: half, newton on
      pair build: half/bin/newton
      stencil: half/bin/3d/newton
      bin: standard
Setting up Verlet run ...
  Unit style    : lj
  Current step  : 75000
  Time step     : 0.001
Per MPI rank memory allocation (min/avg/max) = 9.833 | 9.833 | 9.833 Mbytes
Step Temp E_pair E_mol TotEng Press 
   75000            0 3.1974423e-14            0 3.1974423e-14     0.000125 
   75200            0 3.1974423e-14            0 3.1974423e-14     0.000125 
   75400            0 3.1974423e-14            0 3.1974423e-14     0.000125 
   75600            0 3.1974423e-14            0 3.1974423e-14     0.000125 
   75800            0 3.1974423e-14            0 3.1974423e-14     0.000125 
   76000            0 3.1974423e-14            0 3.1974423e-14     0.000125 
Loop time of 0.026029 on 1 procs for 1000 steps with 2 atoms

Performance: 3319374.544 tau/day, 38418.687 timesteps/s
0.0% CPU use with 1 MPI tasks x 1 OpenMP threads

MPI task timing breakdown:
Section |  min time  |  avg time  |  max time  |%varavg| %total
---------------------------------------------------------------
Pair    | 0.003604   | 0.003604   | 0.003604   |   0.0 | 13.85
Bond    | 0.005161   | 0.005161   | 0.005161   |   0.0 | 19.83
Neigh   | 0          | 0          | 0          |   0.0 |  0.00
Comm    | 0.003192   | 0.003192   | 0.003192   |   0.0 | 12.26
Output  | 0.003856   | 0.003856   | 0.003856   |   0.0 | 14.81
Modify  | 0.003884   | 0.003884   | 0.003884   |   0.0 | 14.92
Other   |            | 0.006332   |            |       | 24.33

Nlocal:    2 ave 2 max 2 min
Histogram: 1 0 0 0 0 0 0 0 0 0
Nghost:    0 ave 0 max 0 min
Histogram: 1 0 0 0 0 0 0 0 0 0
Neighs:    0 ave 0 max 0 min
Histogram: 1 0 0 0 0 0 0 0 0 0

Total # of neighbors = 0
Ave neighs/atom = 0
Ave special neighs/atom = 0
Neighbor list builds = 0
Dangerous builds = 0
Displacing atoms ...
Neighbor list info ...
  update every 1 steps, delay 10 steps, check yes
  max neighbors/atom: 2000, page size: 100000
  master list distance cutoff = 2.8
  ghost atom cutoff = 2.8
  binsize = 1.4, bins = 29 29 29
  7 neighbor lists, perpetual/occasional/extra = 6 1 0
  (1) pair lj/expand/twopiece, perpetual, skip from (7)
      attributes: half, newton on
      pair build: skip
      stencil: none
      bin: none
  (2) pair lj/twopiece, perpetual, skip from (7)
      attributes: half, newton on
      pair build: skip
      stencil: none
      bin: none
  (3) pair soft/shift, perpetual, skip from (7)
      attributes: half, newton on
      pair build: skip
      stencil: none
      bin: none
  (4) pair zero, perpetual, skip from (7)
      attributes: half, newton on
      pair build: skip
      stencil: none
      bin: none
  (5) pair morse, perpetual, skip from (7)
      attributes: half, newton on
      pair build: skip
      stencil: none
      bin: none
  (6) compute pair/local, occasional, copy from (7)
      attributes: half, newton on
      pair build: copy
      stencil: none
      bin: none
  (7) neighbor class addition, perpetual
      attributes: half, newton on
      pair build: half/bin/newton
      stencil: half/bin/3d/newton
      bin: standard
Setting up Verlet run ...
  Unit style    : lj
  Current step  : 76000
  Time step     : 0.001
Per MPI rank memory allocation (min/avg/max) = 9.833 | 9.833 | 9.833 Mbytes
Step Temp E_pair E_mol TotEng Press 
   76000            0   0.70911947            0   0.70911947 0.00024833173 
   76200            0   0.70911947            0   0.70911947 0.00024833173 
   76400            0   0.70911947            0   0.70911947 0.00024833173 
   76600            0   0.70911947            0   0.70911947 0.00024833173 
   76800            0   0.70911947            0   0.70911947 0.00024833173 
   77000            0   0.70911947            0   0.70911947 0.00024833173 
Loop time of 0.016512 on 1 procs for 1000 steps with 2 atoms

Performance: 5232558.139 tau/day, 60562.015 timesteps/s
94.6% CPU use with 1 MPI tasks x 1 OpenMP threads

MPI task timing breakdown:
Section |  min time  |  avg time  |  max time  |%varavg| %total
---------------------------------------------------------------
Pair    | 0.001814   | 0.001814   | 0.001814   |   0.0 | 10.99
Bond    | 0.001992   | 0.001992   | 0.001992   |   0.0 | 12.06
Neigh   | 0          | 0          | 0          |   0.0 |  0.00
Comm    | 0.002469   | 0.002469   | 0.002469   |   0.0 | 14.95
Output  | 0.003082   | 0.003082   | 0.003082   |   0.0 | 18.67
Modify  | 0.003295   | 0.003295   | 0.003295   |   0.0 | 19.96
Other   |            | 0.00386    |            |       | 23.38

Nlocal:    2 ave 2 max 2 min
Histogram: 1 0 0 0 0 0 0 0 0 0
Nghost:    0 ave 0 max 0 min
Histogram: 1 0 0 0 0 0 0 0 0 0
Neighs:    0 ave 0 max 0 min
Histogram: 1 0 0 0 0 0 0 0 0 0

Total # of neighbors = 0
Ave neighs/atom = 0
Ave special neighs/atom = 0
Neighbor list builds = 0
Dangerous builds = 0
Displacing atoms ...
Neighbor list info ...
  update every 1 steps, delay 10 steps, check yes
  max neighbors/atom: 2000, page size: 100000
  master list distance cutoff = 2.8
  ghost atom cutoff = 2.8
  binsize = 1.4, bins = 29 29 29
  7 neighbor lists, perpetual/occasional/extra = 6 1 0
  (1) pair lj/expand/twopiece, perpetual, skip from (7)
      attributes: half, newton on
      pair build: skip
      stencil: none
      bin: none
  (2) pair lj/twopiece, perpetual, skip from (7)
      attributes: half, newton on
      pair build: skip
      stencil: none
      bin: none
  (3) pair soft/shift, perpetual, skip from (7)
      attributes: half, newton on
      pair build: skip
      stencil: none
      bin: none
  (4) pair zero, perpetual, skip from (7)
      attributes: half, newton on
      pair build: skip
      stencil: none
      bin: none
  (5) pair morse, perpetual, skip from (7)
      attributes: half, newton on
      pair build: skip
      stencil: none
      bin: none
  (6) compute pair/local, occasional, copy from (7)
      attributes: half, newton on
      pair build: copy
      stencil: none
      bin: none
  (7) neighbor class addition, perpetual
      attributes: half, newton on
      pair build: half/bin/newton
      stencil: half/bin/3d/newton
      bin: standard
Setting up Verlet run ...
  Unit style    : lj
  Current step  : 77000
  Time step     : 0.001
Per MPI rank memory allocation (min/avg/max) = 9.833 | 9.833 | 9.833 Mbytes
Step Temp E_pair E_mol TotEng Press 
   77000            0    2.1413162            0    2.1413162 0.00047381439 
   77200            0    2.1413162            0    2.1413162 0.00047381439 
   77400            0    2.1413162            0    2.1413162 0.00047381439 
   77600            0    2.1413162            0    2.1413162 0.00047381439 
   77800            0    2.1413162            0    2.1413162 0.00047381439 
   78000            0    2.1413162            0    2.1413162 0.00047381439 
Loop time of 0.039722 on 1 procs for 1000 steps with 2 atoms

Performance: 2175117.063 tau/day, 25174.966 timesteps/s
39.3% CPU use with 1 MPI tasks x 1 OpenMP threads

MPI task timing breakdown:
Section |  min time  |  avg time  |  max time  |%varavg| %total
---------------------------------------------------------------
Pair    | 0.003094   | 0.003094   | 0.003094   |   0.0 |  7.79
Bond    | 0.004231   | 0.004231   | 0.004231   |   0.0 | 10.65
Neigh   | 0          | 0          | 0          |   0.0 |  0.00
Comm    | 0.005865   | 0.005865   | 0.005865   |   0.0 | 14.77
Output  | 0.007327   | 0.007327   | 0.007327   |   0.0 | 18.45
Modify  | 0.009932   | 0.009932   | 0.009932   |   0.0 | 25.00
Other   |            | 0.009273   |            |       | 23.34

Nlocal:    2 ave 2 max 2 min
Histogram: 1 0 0 0 0 0 0 0 0 0
Nghost:    0 ave 0 max 0 min
Histogram: 1 0 0 0 0 0 0 0 0 0
Neighs:    0 ave 0 max 0 min
Histogram: 1 0 0 0 0 0 0 0 0 0

Total # of neighbors = 0
Ave neighs/atom = 0
Ave special neighs/atom = 0
Neighbor list builds = 0
Dangerous builds = 0
Displacing atoms ...
Neighbor list info ...
  update every 1 steps, delay 10 steps, check yes
  max neighbors/atom: 2000, page size: 100000
  master list distance cutoff = 2.8
  ghost atom cutoff = 2.8
  binsize = 1.4, bins = 29 29 29
  7 neighbor lists, perpetual/occasional/extra = 6 1 0
  (1) pair lj/expand/twopiece, perpetual, skip from (7)
      attributes: half, newton on
      pair build: skip
      stencil: none
      bin: none
  (2) pair lj/twopiece, perpetual, skip from (7)
      attributes: half, newton on
      pair build: skip
      stencil: none
      bin: none
  (3) pair soft/shift, perpetual, skip from (7)
      attributes: half, newton on
      pair build: skip
      stencil: none
      bin: none
  (4) pair zero, perpetual, skip from (7)
      attributes: half, newton on
      pair build: skip
      stencil: none
      bin: none
  (5) pair morse, perpetual, skip from (7)
      attributes: half, newton on
      pair build: skip
      stencil: none
      bin: none
  (6) compute pair/local, occasional, copy from (7)
      attributes: half, newton on
      pair build: copy
      stencil: none
      bin: none
  (7) neighbor class addition, perpetual
      attributes: half, newton on
      pair build: half/bin/newton
      stencil: half/bin/3d/newton
      bin: standard
Setting up Verlet run ...
  Unit style    : lj
  Current step  : 78000
  Time step     : 0.001
Per MPI rank memory allocation (min/avg/max) = 9.833 | 9.833 | 9.833 Mbytes
Step Temp E_pair E_mol TotEng Press 
   78000            0     4.966783            0     4.966783 0.00089001002 
   78200            0     4.966783            0     4.966783 0.00089001002 
   78400            0     4.966783            0     4.966783 0.00089001002 
   78600            0     4.966783            0     4.966783 0.00089001002 
   78800            0     4.966783            0     4.966783 0.00089001002 
   79000            0     4.966783            0     4.966783 0.00089001002 
Loop time of 0.029137 on 1 procs for 1000 steps with 2 atoms

Performance: 2965301.852 tau/day, 34320.623 timesteps/s
0.0% CPU use with 1 MPI tasks x 1 OpenMP threads

MPI task timing breakdown:
Section |  min time  |  avg time  |  max time  |%varavg| %total
---------------------------------------------------------------
Pair    | 0.002642   | 0.002642   | 0.002642   |   0.0 |  9.07
Bond    | 0.001814   | 0.001814   | 0.001814   |   0.0 |  6.23
Neigh   | 0          | 0          | 0          |   0.0 |  0.00
Comm    | 0.004984   | 0.004984   | 0.004984   |   0.0 | 17.11
Output  | 0.010553   | 0.010553   | 0.010553   |   0.0 | 36.22
Modify  | 0.003149   | 0.003149   | 0.003149   |   0.0 | 10.81
Other   |            | 0.005995   |            |       | 20.58

Nlocal:    2 ave 2 max 2 min
Histogram: 1 0 0 0 0 0 0 0 0 0
Nghost:    0 ave 0 max 0 min
Histogram: 1 0 0 0 0 0 0 0 0 0
Neighs:    0 ave 0 max 0 min
Histogram: 1 0 0 0 0 0 0 0 0 0

Total # of neighbors = 0
Ave neighs/atom = 0
Ave special neighs/atom = 0
Neighbor list builds = 0
Dangerous builds = 0
Displacing atoms ...
Neighbor list info ...
  update every 1 steps, delay 10 steps, check yes
  max neighbors/atom: 2000, page size: 100000
  master list distance cutoff = 2.8
  ghost atom cutoff = 2.8
  binsize = 1.4, bins = 29 29 29
  7 neighbor lists, perpetual/occasional/extra = 6 1 0
  (1) pair lj/expand/twopiece, perpetual, skip from (7)
      attributes: half, newton on
      pair build: skip
      stencil: none
      bin: none
  (2) pair lj/twopiece, perpetual, skip from (7)
      attributes: half, newton on
      pair build: skip
      stencil: none
      bin: none
  (3) pair soft/shift, perpetual, skip from (7)
      attributes: half, newton on
      pair build: skip
      stencil: none
      bin: none
  (4) pair zero, perpetual, skip from (7)
      attributes: half, newton on
      pair build: skip
      stencil: none
      bin: none
  (5) pair morse, perpetual, skip from (7)
      attributes: half, newton on
      pair build: skip
      stencil: none
      bin: none
  (6) compute pair/local, occasional, copy from (7)
      attributes: half, newton on
      pair build: copy
      stencil: none
      bin: none
  (7) neighbor class addition, perpetual
      attributes: half, newton on
      pair build: half/bin/newton
      stencil: half/bin/3d/newton
      bin: standard
Setting up Verlet run ...
  Unit style    : lj
  Current step  : 79000
  Time step     : 0.001
Per MPI rank memory allocation (min/avg/max) = 9.833 | 9.833 | 9.833 Mbytes
Step Temp E_pair E_mol TotEng Press 
   79000            0     10.51293            0     10.51293 0.0016699395 
   79200            0     10.51293            0     10.51293 0.0016699395 
   79400            0     10.51293            0     10.51293 0.0016699395 
   79600            0     10.51293            0     10.51293 0.0016699395 
   79800            0     10.51293            0     10.51293 0.0016699395 
   80000            0     10.51293            0     10.51293 0.0016699395 
Loop time of 0.03002 on 1 procs for 1000 steps with 2 atoms

Performance: 2878081.279 tau/day, 33311.126 timesteps/s
52.0% CPU use with 1 MPI tasks x 1 OpenMP threads

MPI task timing breakdown:
Section |  min time  |  avg time  |  max time  |%varavg| %total
---------------------------------------------------------------
Pair    | 0.002237   | 0.002237   | 0.002237   |   0.0 |  7.45
Bond    | 0.00264    | 0.00264    | 0.00264    |   0.0 |  8.79
Neigh   | 0          | 0          | 0          |   0.0 |  0.00
Comm    | 0.004336   | 0.004336   | 0.004336   |   0.0 | 14.44
Output  | 0.007994   | 0.007994   | 0.007994   |   0.0 | 26.63
Modify  | 0.005609   | 0.005609   | 0.005609   |   0.0 | 18.68
Other   |            | 0.007204   |            |       | 24.00

Nlocal:    2 ave 2 max 2 min
Histogram: 1 0 0 0 0 0 0 0 0 0
Nghost:    0 ave 0 max 0 min
Histogram: 1 0 0 0 0 0 0 0 0 0
Neighs:    0 ave 0 max 0 min
Histogram: 1 0 0 0 0 0 0 0 0 0

Total # of neighbors = 0
Ave neighs/atom = 0
Ave special neighs/atom = 0
Neighbor list builds = 0
Dangerous builds = 0
Displacing atoms ...
Neighbor list info ...
  update every 1 steps, delay 10 steps, check yes
  max neighbors/atom: 2000, page size: 100000
  master list distance cutoff = 2.8
  ghost atom cutoff = 2.8
  binsize = 1.4, bins = 29 29 29
  7 neighbor lists, perpetual/occasional/extra = 6 1 0
  (1) pair lj/expand/twopiece, perpetual, skip from (7)
      attributes: half, newton on
      pair build: skip
      stencil: none
      bin: none
  (2) pair lj/twopiece, perpetual, skip from (7)
      attributes: half, newton on
      pair build: skip
      stencil: none
      bin: none
  (3) pair soft/shift, perpetual, skip from (7)
      attributes: half, newton on
      pair build: skip
      stencil: none
      bin: none
  (4) pair zero, perpetual, skip from (7)
      attributes: half, newton on
      pair build: skip
      stencil: none
      bin: none
  (5) pair morse, perpetual, skip from (7)
      attributes: half, newton on
      pair build: skip
      stencil: none
      bin: none
  (6) compute pair/local, occasional, copy from (7)
      attributes: half, newton on
      pair build: copy
      stencil: none
      bin: none
  (7) neighbor class addition, perpetual
      attributes: half, newton on
      pair build: half/bin/newton
      stencil: half/bin/3d/newton
      bin: standard
Setting up Verlet run ...
  Unit style    : lj
  Current step  : 80000
  Time step     : 0.001
Per MPI rank memory allocation (min/avg/max) = 9.833 | 9.833 | 9.833 Mbytes
Step Temp E_pair E_mol TotEng Press 
   80000            0    21.474436            0    21.474436 0.0031611416 
   80200            0    21.474436            0    21.474436 0.0031611416 
   80400            0    21.474436            0    21.474436 0.0031611416 
   80600            0    21.474436            0    21.474436 0.0031611416 
   80800            0    21.474436            0    21.474436 0.0031611416 
   81000            0    21.474436            0    21.474436 0.0031611416 
Loop time of 0.020632 on 1 procs for 1000 steps with 2 atoms

Performance: 4187669.639 tau/day, 48468.399 timesteps/s
0.0% CPU use with 1 MPI tasks x 1 OpenMP threads

MPI task timing breakdown:
Section |  min time  |  avg time  |  max time  |%varavg| %total
---------------------------------------------------------------
Pair    | 0.002555   | 0.002555   | 0.002555   |   0.0 | 12.38
Bond    | 0.001632   | 0.001632   | 0.001632   |   0.0 |  7.91
Neigh   | 0          | 0          | 0          |   0.0 |  0.00
Comm    | 0.003367   | 0.003367   | 0.003367   |   0.0 | 16.32
Output  | 0.004234   | 0.004234   | 0.004234   |   0.0 | 20.52
Modify  | 0.00412    | 0.00412    | 0.00412    |   0.0 | 19.97
Other   |            | 0.004724   |            |       | 22.90

Nlocal:    2 ave 2 max 2 min
Histogram: 1 0 0 0 0 0 0 0 0 0
Nghost:    0 ave 0 max 0 min
Histogram: 1 0 0 0 0 0 0 0 0 0
Neighs:    0 ave 0 max 0 min
Histogram: 1 0 0 0 0 0 0 0 0 0

Total # of neighbors = 0
Ave neighs/atom = 0
Ave special neighs/atom = 0
Neighbor list builds = 0
Dangerous builds = 0
Total wall time: 0:00:02
