LAMMPS (7 Aug 2019)
OMP_NUM_THREADS environment is not set. Defaulting to 1 thread. (src/comm.cpp:93)
  using 1 OpenMP thread(s) per MPI task


# ----------------- Init Section -----------------

include "system.in.init"
        units lj
        atom_style angle
        pair_style hybrid lj/expand/twopiece 2.5 soft/shift 0.3 zero 1 morse 2.5
        bond_style hybrid harmonic
        angle_style hybrid harmonic
        special_bonds lj 0.0 0.0 0.0


# ----------------- Atom Definition Section -----------------

read_data "system.data"
  orthogonal box = (-20 -20 -20) to (20 20 20)
  1 by 1 by 1 MPI processor grid
  reading atoms ...
  2 atoms
  0 = max # of 1-2 neighbors
  0 = max # of 1-3 neighbors
  0 = max # of 1-4 neighbors
  1 = max # of special neighbors
  special bonds CPU = 4.2e-05 secs
  read_data CPU = 0.0015 secs

# ----------------- Settings Section -----------------

include "system.in.settings"
       pair_coeff 2 2 lj/expand/twopiece 0.5 1 0.5 0.
        pair_coeff 3 3 lj/expand/twopiece 1.0 1 0.5 0.
        pair_coeff 4 4 lj/expand/twopiece 1.0 1 0.5 0.
        pair_coeff 3 4 lj/expand/twopiece 1.0 1 0.5 0.
        pair_coeff 2 3 lj/expand/twopiece 0.5 1 0.5 0.
        pair_coeff 2 4 lj/expand/twopiece 0.5 1 0.5 0.

        pair_coeff 5 5 soft/shift 1.5 0.2
pair_coeff 2 5 zero
pair_coeff 1 5 zero
pair_coeff 3 5 zero
pair_coeff 4 5 zero

        pair_coeff 8 8 lj/expand/twopiece 0.5 1 0.5 0.
pair_coeff 5 8 lj/expand/twopiece 0.5 1 0.5 0.
pair_coeff 2 8 zero
pair_coeff 1 8 morse 100 4 0.5
pair_coeff 3 8 zero
pair_coeff 4 8 zero
pair_coeff 6 8 zero
pair_coeff 7 8 zero

        pair_coeff 6 6 soft/shift 1.5 0.2
pair_coeff 2 6 zero
pair_coeff 1 6 zero
pair_coeff 3 6 zero
pair_coeff 4 6 zero
        pair_coeff 6 7 soft/shift 1.5 0.2

        pair_coeff 7 7 soft/shift 1.5 0.2
pair_coeff 2 7 zero
pair_coeff 1 7 zero
pair_coeff 3 7 zero
pair_coeff 4 7 zero

        pair_coeff 1 1 lj/expand/twopiece 0.5 1 0.8 0.
        pair_coeff 1 2 lj/expand/twopiece 0.5 1 0.8 0.
        pair_coeff 1 3 lj/expand/twopiece 0.5 1 0.8 0.
        pair_coeff 1 4 lj/expand/twopiece 0.5 1 0.8 0.


        bond_coeff 1 harmonic 1000 0.4
        bond_coeff 2 harmonic 1000 0.4
        bond_coeff 3 harmonic 1000 0.15

        angle_coeff 1 harmonic 20 180
        angle_coeff 2 harmonic 20 180
        angle_coeff 3 harmonic 20 180
        angle_coeff 4 harmonic 20 180


# ----------------- Run Section -----------------

include "system.in.run"
  dump dxyz all atom 1000 poly.lammpstrj
  group atom1 id 1
1 atoms in group atom1
  group atom2 id 2
1 atoms in group atom2
  compute pair_data all pair/local dist eng

  fix ffreeze all setforce 0 0 0
  dump 1 all local 10 pair_energy.data index c_pair_data[1] c_pair_data[2]

  thermo 200
  timestep 0.001
  run   1000
Neighbor list info ...
  update every 1 steps, delay 10 steps, check yes
  max neighbors/atom: 2000, page size: 100000
  master list distance cutoff = 2.8
  ghost atom cutoff = 2.8
  binsize = 1.4, bins = 29 29 29
  6 neighbor lists, perpetual/occasional/extra = 5 1 0
  (1) pair lj/expand/twopiece, perpetual, skip from (6)
      attributes: half, newton on
      pair build: skip
      stencil: none
      bin: none
  (2) pair soft/shift, perpetual, skip from (6)
      attributes: half, newton on
      pair build: skip
      stencil: none
      bin: none
  (3) pair zero, perpetual, skip from (6)
      attributes: half, newton on
      pair build: skip
      stencil: none
      bin: none
  (4) pair morse, perpetual, skip from (6)
      attributes: half, newton on
      pair build: skip
      stencil: none
      bin: none
  (5) compute pair/local, occasional, copy from (6)
      attributes: half, newton on
      pair build: copy
      stencil: none
      bin: none
  (6) neighbor class addition, perpetual
      attributes: half, newton on
      pair build: half/bin/newton
      stencil: half/bin/3d/newton
      bin: standard
Per MPI rank memory allocation (min/avg/max) = 8.333 | 8.333 | 8.333 Mbytes
Step Temp E_pair E_mol TotEng Press 
       0            0 -0.00016351103            0 -0.00016351103 -1.0218604e-08 
     200            0 -0.00016351103            0 -0.00016351103 -1.0218604e-08 
     400            0 -0.00016351103            0 -0.00016351103 -1.0218604e-08 
     600            0 -0.00016351103            0 -0.00016351103 -1.0218604e-08 
     800            0 -0.00016351103            0 -0.00016351103 -1.0218604e-08 
    1000            0 -0.00016351103            0 -0.00016351103 -1.0218604e-08 
Loop time of 0.023421 on 1 procs for 1000 steps with 2 atoms

Performance: 3688997.055 tau/day, 42696.725 timesteps/s
66.7% CPU use with 1 MPI tasks x 1 OpenMP threads

MPI task timing breakdown:
Section |  min time  |  avg time  |  max time  |%varavg| %total
---------------------------------------------------------------
Pair    | 0.006453   | 0.006453   | 0.006453   |   0.0 | 27.55
Bond    | 0.002106   | 0.002106   | 0.002106   |   0.0 |  8.99
Neigh   | 0          | 0          | 0          |   0.0 |  0.00
Comm    | 0.003455   | 0.003455   | 0.003455   |   0.0 | 14.75
Output  | 0.003434   | 0.003434   | 0.003434   |   0.0 | 14.66
Modify  | 0.002839   | 0.002839   | 0.002839   |   0.0 | 12.12
Other   |            | 0.005134   |            |       | 21.92

Nlocal:    2 ave 2 max 2 min
Histogram: 1 0 0 0 0 0 0 0 0 0
Nghost:    0 ave 0 max 0 min
Histogram: 1 0 0 0 0 0 0 0 0 0
Neighs:    1 ave 1 max 1 min
Histogram: 1 0 0 0 0 0 0 0 0 0

Total # of neighbors = 1
Ave neighs/atom = 0.5
Ave special neighs/atom = 0
Neighbor list builds = 0
Dangerous builds = 0
  variable a loop 240
  label loop
  displace_atoms atom2 move 0 -0.02 0
  run   1000
Neighbor list info ...
  update every 1 steps, delay 10 steps, check yes
  max neighbors/atom: 2000, page size: 100000
  master list distance cutoff = 2.8
  ghost atom cutoff = 2.8
  binsize = 1.4, bins = 29 29 29
  6 neighbor lists, perpetual/occasional/extra = 5 1 0
  (1) pair lj/expand/twopiece, perpetual, skip from (6)
      attributes: half, newton on
      pair build: skip
      stencil: none
      bin: none
  (2) pair soft/shift, perpetual, skip from (6)
      attributes: half, newton on
      pair build: skip
      stencil: none
      bin: none
  (3) pair zero, perpetual, skip from (6)
      attributes: half, newton on
      pair build: skip
      stencil: none
      bin: none
  (4) pair morse, perpetual, skip from (6)
      attributes: half, newton on
      pair build: skip
      stencil: none
      bin: none
  (5) compute pair/local, occasional, copy from (6)
      attributes: half, newton on
      pair build: copy
      stencil: none
      bin: none
  (6) neighbor class addition, perpetual
      attributes: half, newton on
      pair build: half/bin/newton
      stencil: half/bin/3d/newton
      bin: standard
Per MPI rank memory allocation (min/avg/max) = 9.201 | 9.201 | 9.201 Mbytes
Step Temp E_pair E_mol TotEng Press 
    1000            0 -0.00017192971            0 -0.00017192971 -1.0744683e-08 
    1200            0 -0.00017192971            0 -0.00017192971 -1.0744683e-08 
    1400            0 -0.00017192971            0 -0.00017192971 -1.0744683e-08 
    1600            0 -0.00017192971            0 -0.00017192971 -1.0744683e-08 
    1800            0 -0.00017192971            0 -0.00017192971 -1.0744683e-08 
    2000            0 -0.00017192971            0 -0.00017192971 -1.0744683e-08 
Loop time of 0.017518 on 1 procs for 1000 steps with 2 atoms

Performance: 4932069.877 tau/day, 57084.142 timesteps/s
89.2% CPU use with 1 MPI tasks x 1 OpenMP threads

MPI task timing breakdown:
Section |  min time  |  avg time  |  max time  |%varavg| %total
---------------------------------------------------------------
Pair    | 0.001725   | 0.001725   | 0.001725   |   0.0 |  9.85
Bond    | 0.001445   | 0.001445   | 0.001445   |   0.0 |  8.25
Neigh   | 0          | 0          | 0          |   0.0 |  0.00
Comm    | 0.002619   | 0.002619   | 0.002619   |   0.0 | 14.95
Output  | 0.003139   | 0.003139   | 0.003139   |   0.0 | 17.92
Modify  | 0.002699   | 0.002699   | 0.002699   |   0.0 | 15.41
Other   |            | 0.005891   |            |       | 33.63

Nlocal:    2 ave 2 max 2 min
Histogram: 1 0 0 0 0 0 0 0 0 0
Nghost:    0 ave 0 max 0 min
Histogram: 1 0 0 0 0 0 0 0 0 0
Neighs:    1 ave 1 max 1 min
Histogram: 1 0 0 0 0 0 0 0 0 0

Total # of neighbors = 1
Ave neighs/atom = 0.5
Ave special neighs/atom = 0
Neighbor list builds = 0
Dangerous builds = 0
  next a
  jump SELF loop
  displace_atoms atom2 move 0 -0.02 0
  run   1000
Neighbor list info ...
  update every 1 steps, delay 10 steps, check yes
  max neighbors/atom: 2000, page size: 100000
  master list distance cutoff = 2.8
  ghost atom cutoff = 2.8
  binsize = 1.4, bins = 29 29 29
  6 neighbor lists, perpetual/occasional/extra = 5 1 0
  (1) pair lj/expand/twopiece, perpetual, skip from (6)
      attributes: half, newton on
      pair build: skip
      stencil: none
      bin: none
  (2) pair soft/shift, perpetual, skip from (6)
      attributes: half, newton on
      pair build: skip
      stencil: none
      bin: none
  (3) pair zero, perpetual, skip from (6)
      attributes: half, newton on
      pair build: skip
      stencil: none
      bin: none
  (4) pair morse, perpetual, skip from (6)
      attributes: half, newton on
      pair build: skip
      stencil: none
      bin: none
  (5) compute pair/local, occasional, copy from (6)
      attributes: half, newton on
      pair build: copy
      stencil: none
      bin: none
  (6) neighbor class addition, perpetual
      attributes: half, newton on
      pair build: half/bin/newton
      stencil: half/bin/3d/newton
      bin: standard
Per MPI rank memory allocation (min/avg/max) = 9.201 | 9.201 | 9.201 Mbytes
Step Temp E_pair E_mol TotEng Press 
    2000            0 -0.00018085842            0 -0.00018085842 -1.1302629e-08 
    2200            0 -0.00018085842            0 -0.00018085842 -1.1302629e-08 
    2400            0 -0.00018085842            0 -0.00018085842 -1.1302629e-08 
    2600            0 -0.00018085842            0 -0.00018085842 -1.1302629e-08 
    2800            0 -0.00018085842            0 -0.00018085842 -1.1302629e-08 
    3000            0 -0.00018085842            0 -0.00018085842 -1.1302629e-08 
Loop time of 0.022393 on 1 procs for 1000 steps with 2 atoms

Performance: 3858348.587 tau/day, 44656.812 timesteps/s
69.8% CPU use with 1 MPI tasks x 1 OpenMP threads

MPI task timing breakdown:
Section |  min time  |  avg time  |  max time  |%varavg| %total
---------------------------------------------------------------
Pair    | 0.001994   | 0.001994   | 0.001994   |   0.0 |  8.90
Bond    | 0.001569   | 0.001569   | 0.001569   |   0.0 |  7.01
Neigh   | 0          | 0          | 0          |   0.0 |  0.00
Comm    | 0.002973   | 0.002973   | 0.002973   |   0.0 | 13.28
Output  | 0.008168   | 0.008168   | 0.008168   |   0.0 | 36.48
Modify  | 0.002919   | 0.002919   | 0.002919   |   0.0 | 13.04
Other   |            | 0.00477    |            |       | 21.30

Nlocal:    2 ave 2 max 2 min
Histogram: 1 0 0 0 0 0 0 0 0 0
Nghost:    0 ave 0 max 0 min
Histogram: 1 0 0 0 0 0 0 0 0 0
Neighs:    1 ave 1 max 1 min
Histogram: 1 0 0 0 0 0 0 0 0 0

Total # of neighbors = 1
Ave neighs/atom = 0.5
Ave special neighs/atom = 0
Neighbor list builds = 0
Dangerous builds = 0
  next a
  jump SELF loop
  displace_atoms atom2 move 0 -0.02 0
  run   1000
Neighbor list info ...
  update every 1 steps, delay 10 steps, check yes
  max neighbors/atom: 2000, page size: 100000
  master list distance cutoff = 2.8
  ghost atom cutoff = 2.8
  binsize = 1.4, bins = 29 29 29
  6 neighbor lists, perpetual/occasional/extra = 5 1 0
  (1) pair lj/expand/twopiece, perpetual, skip from (6)
      attributes: half, newton on
      pair build: skip
      stencil: none
      bin: none
  (2) pair soft/shift, perpetual, skip from (6)
      attributes: half, newton on
      pair build: skip
      stencil: none
      bin: none
  (3) pair zero, perpetual, skip from (6)
      attributes: half, newton on
      pair build: skip
      stencil: none
      bin: none
  (4) pair morse, perpetual, skip from (6)
      attributes: half, newton on
      pair build: skip
      stencil: none
      bin: none
  (5) compute pair/local, occasional, copy from (6)
      attributes: half, newton on
      pair build: copy
      stencil: none
      bin: none
  (6) neighbor class addition, perpetual
      attributes: half, newton on
      pair build: half/bin/newton
      stencil: half/bin/3d/newton
      bin: standard
Per MPI rank memory allocation (min/avg/max) = 9.201 | 9.201 | 9.201 Mbytes
Step Temp E_pair E_mol TotEng Press 
    3000            0 -0.00019033276            0 -0.00019033276 -1.1894665e-08 
    3200            0 -0.00019033276            0 -0.00019033276 -1.1894665e-08 
    3400            0 -0.00019033276            0 -0.00019033276 -1.1894665e-08 
    3600            0 -0.00019033276            0 -0.00019033276 -1.1894665e-08 
    3800            0 -0.00019033276            0 -0.00019033276 -1.1894665e-08 
    4000            0 -0.00019033276            0 -0.00019033276 -1.1894665e-08 
Loop time of 0.662027 on 1 procs for 1000 steps with 2 atoms

Performance: 130508.272 tau/day, 1510.512 timesteps/s
0.0% CPU use with 1 MPI tasks x 1 OpenMP threads

MPI task timing breakdown:
Section |  min time  |  avg time  |  max time  |%varavg| %total
---------------------------------------------------------------
Pair    | 0.003054   | 0.003054   | 0.003054   |   0.0 |  0.46
Bond    | 0.004118   | 0.004118   | 0.004118   |   0.0 |  0.62
Neigh   | 0          | 0          | 0          |   0.0 |  0.00
Comm    | 0.004865   | 0.004865   | 0.004865   |   0.0 |  0.73
Output  | 0.63744    | 0.63744    | 0.63744    |   0.0 | 96.29
Modify  | 0.004046   | 0.004046   | 0.004046   |   0.0 |  0.61
Other   |            | 0.008507   |            |       |  1.28

Nlocal:    2 ave 2 max 2 min
Histogram: 1 0 0 0 0 0 0 0 0 0
Nghost:    0 ave 0 max 0 min
Histogram: 1 0 0 0 0 0 0 0 0 0
Neighs:    1 ave 1 max 1 min
Histogram: 1 0 0 0 0 0 0 0 0 0

Total # of neighbors = 1
Ave neighs/atom = 0.5
Ave special neighs/atom = 0
Neighbor list builds = 0
Dangerous builds = 0
  next a
  jump SELF loop
  displace_atoms atom2 move 0 -0.02 0
  run   1000
Neighbor list info ...
  update every 1 steps, delay 10 steps, check yes
  max neighbors/atom: 2000, page size: 100000
  master list distance cutoff = 2.8
  ghost atom cutoff = 2.8
  binsize = 1.4, bins = 29 29 29
  6 neighbor lists, perpetual/occasional/extra = 5 1 0
  (1) pair lj/expand/twopiece, perpetual, skip from (6)
      attributes: half, newton on
      pair build: skip
      stencil: none
      bin: none
  (2) pair soft/shift, perpetual, skip from (6)
      attributes: half, newton on
      pair build: skip
      stencil: none
      bin: none
  (3) pair zero, perpetual, skip from (6)
      attributes: half, newton on
      pair build: skip
      stencil: none
      bin: none
  (4) pair morse, perpetual, skip from (6)
      attributes: half, newton on
      pair build: skip
      stencil: none
      bin: none
  (5) compute pair/local, occasional, copy from (6)
      attributes: half, newton on
      pair build: copy
      stencil: none
      bin: none
  (6) neighbor class addition, perpetual
      attributes: half, newton on
      pair build: half/bin/newton
      stencil: half/bin/3d/newton
      bin: standard
Per MPI rank memory allocation (min/avg/max) = 9.201 | 9.201 | 9.201 Mbytes
Step Temp E_pair E_mol TotEng Press 
    4000            0 -0.00020039117            0 -0.00020039117 -1.2523193e-08 
    4200            0 -0.00020039117            0 -0.00020039117 -1.2523193e-08 
    4400            0 -0.00020039117            0 -0.00020039117 -1.2523193e-08 
    4600            0 -0.00020039117            0 -0.00020039117 -1.2523193e-08 
    4800            0 -0.00020039117            0 -0.00020039117 -1.2523193e-08 
    5000            0 -0.00020039117            0 -0.00020039117 -1.2523193e-08 
Loop time of 0.070578 on 1 procs for 1000 steps with 2 atoms

Performance: 1224177.506 tau/day, 14168.721 timesteps/s
44.3% CPU use with 1 MPI tasks x 1 OpenMP threads

MPI task timing breakdown:
Section |  min time  |  avg time  |  max time  |%varavg| %total
---------------------------------------------------------------
Pair    | 0.002849   | 0.002849   | 0.002849   |   0.0 |  4.04
Bond    | 0.001579   | 0.001579   | 0.001579   |   0.0 |  2.24
Neigh   | 0          | 0          | 0          |   0.0 |  0.00
Comm    | 0.003022   | 0.003022   | 0.003022   |   0.0 |  4.28
Output  | 0.032231   | 0.032231   | 0.032231   |   0.0 | 45.67
Modify  | 0.012993   | 0.012993   | 0.012993   |   0.0 | 18.41
Other   |            | 0.0179     |            |       | 25.37

Nlocal:    2 ave 2 max 2 min
Histogram: 1 0 0 0 0 0 0 0 0 0
Nghost:    0 ave 0 max 0 min
Histogram: 1 0 0 0 0 0 0 0 0 0
Neighs:    1 ave 1 max 1 min
Histogram: 1 0 0 0 0 0 0 0 0 0

Total # of neighbors = 1
Ave neighs/atom = 0.5
Ave special neighs/atom = 0
Neighbor list builds = 0
Dangerous builds = 0
  next a
  jump SELF loop
  displace_atoms atom2 move 0 -0.02 0
  run   1000
Neighbor list info ...
  update every 1 steps, delay 10 steps, check yes
  max neighbors/atom: 2000, page size: 100000
  master list distance cutoff = 2.8
  ghost atom cutoff = 2.8
  binsize = 1.4, bins = 29 29 29
  6 neighbor lists, perpetual/occasional/extra = 5 1 0
  (1) pair lj/expand/twopiece, perpetual, skip from (6)
      attributes: half, newton on
      pair build: skip
      stencil: none
      bin: none
  (2) pair soft/shift, perpetual, skip from (6)
      attributes: half, newton on
      pair build: skip
      stencil: none
      bin: none
  (3) pair zero, perpetual, skip from (6)
      attributes: half, newton on
      pair build: skip
      stencil: none
      bin: none
  (4) pair morse, perpetual, skip from (6)
      attributes: half, newton on
      pair build: skip
      stencil: none
      bin: none
  (5) compute pair/local, occasional, copy from (6)
      attributes: half, newton on
      pair build: copy
      stencil: none
      bin: none
  (6) neighbor class addition, perpetual
      attributes: half, newton on
      pair build: half/bin/newton
      stencil: half/bin/3d/newton
      bin: standard
Per MPI rank memory allocation (min/avg/max) = 9.201 | 9.201 | 9.201 Mbytes
Step Temp E_pair E_mol TotEng Press 
    5000            0 -0.00021107518            0 -0.00021107518 -1.3190806e-08 
    5200            0 -0.00021107518            0 -0.00021107518 -1.3190806e-08 
    5400            0 -0.00021107518            0 -0.00021107518 -1.3190806e-08 
    5600            0 -0.00021107518            0 -0.00021107518 -1.3190806e-08 
    5800            0 -0.00021107518            0 -0.00021107518 -1.3190806e-08 
    6000            0 -0.00021107518            0 -0.00021107518 -1.3190806e-08 
Loop time of 0.054123 on 1 procs for 1000 steps with 2 atoms

Performance: 1596363.838 tau/day, 18476.433 timesteps/s
57.7% CPU use with 1 MPI tasks x 1 OpenMP threads

MPI task timing breakdown:
Section |  min time  |  avg time  |  max time  |%varavg| %total
---------------------------------------------------------------
Pair    | 0.011427   | 0.011427   | 0.011427   |   0.0 | 21.11
Bond    | 0.004708   | 0.004708   | 0.004708   |   0.0 |  8.70
Neigh   | 0          | 0          | 0          |   0.0 |  0.00
Comm    | 0.003537   | 0.003537   | 0.003537   |   0.0 |  6.54
Output  | 0.020542   | 0.020542   | 0.020542   |   0.0 | 37.95
Modify  | 0.003721   | 0.003721   | 0.003721   |   0.0 |  6.88
Other   |            | 0.01019    |            |       | 18.82

Nlocal:    2 ave 2 max 2 min
Histogram: 1 0 0 0 0 0 0 0 0 0
Nghost:    0 ave 0 max 0 min
Histogram: 1 0 0 0 0 0 0 0 0 0
Neighs:    1 ave 1 max 1 min
Histogram: 1 0 0 0 0 0 0 0 0 0

Total # of neighbors = 1
Ave neighs/atom = 0.5
Ave special neighs/atom = 0
Neighbor list builds = 0
Dangerous builds = 0
  next a
  jump SELF loop
  displace_atoms atom2 move 0 -0.02 0
  run   1000
Neighbor list info ...
  update every 1 steps, delay 10 steps, check yes
  max neighbors/atom: 2000, page size: 100000
  master list distance cutoff = 2.8
  ghost atom cutoff = 2.8
  binsize = 1.4, bins = 29 29 29
  6 neighbor lists, perpetual/occasional/extra = 5 1 0
  (1) pair lj/expand/twopiece, perpetual, skip from (6)
      attributes: half, newton on
      pair build: skip
      stencil: none
      bin: none
  (2) pair soft/shift, perpetual, skip from (6)
      attributes: half, newton on
      pair build: skip
      stencil: none
      bin: none
  (3) pair zero, perpetual, skip from (6)
      attributes: half, newton on
      pair build: skip
      stencil: none
      bin: none
  (4) pair morse, perpetual, skip from (6)
      attributes: half, newton on
      pair build: skip
      stencil: none
      bin: none
  (5) compute pair/local, occasional, copy from (6)
      attributes: half, newton on
      pair build: copy
      stencil: none
      bin: none
  (6) neighbor class addition, perpetual
      attributes: half, newton on
      pair build: half/bin/newton
      stencil: half/bin/3d/newton
      bin: standard
Per MPI rank memory allocation (min/avg/max) = 9.201 | 9.201 | 9.201 Mbytes
Step Temp E_pair E_mol TotEng Press 
    6000            0 -0.00022242963            0 -0.00022242963 -1.3900305e-08 
    6200            0 -0.00022242963            0 -0.00022242963 -1.3900305e-08 
    6400            0 -0.00022242963            0 -0.00022242963 -1.3900305e-08 
    6600            0 -0.00022242963            0 -0.00022242963 -1.3900305e-08 
    6800            0 -0.00022242963            0 -0.00022242963 -1.3900305e-08 
    7000            0 -0.00022242963            0 -0.00022242963 -1.3900305e-08 
Loop time of 0.164082 on 1 procs for 1000 steps with 2 atoms

Performance: 526565.985 tau/day, 6094.514 timesteps/s
19.0% CPU use with 1 MPI tasks x 1 OpenMP threads

MPI task timing breakdown:
Section |  min time  |  avg time  |  max time  |%varavg| %total
---------------------------------------------------------------
Pair    | 0.005436   | 0.005436   | 0.005436   |   0.0 |  3.31
Bond    | 0.007078   | 0.007078   | 0.007078   |   0.0 |  4.31
Neigh   | 0          | 0          | 0          |   0.0 |  0.00
Comm    | 0.003622   | 0.003622   | 0.003622   |   0.0 |  2.21
Output  | 0.13425    | 0.13425    | 0.13425    |   0.0 | 81.82
Modify  | 0.005203   | 0.005203   | 0.005203   |   0.0 |  3.17
Other   |            | 0.008497   |            |       |  5.18

Nlocal:    2 ave 2 max 2 min
Histogram: 1 0 0 0 0 0 0 0 0 0
Nghost:    0 ave 0 max 0 min
Histogram: 1 0 0 0 0 0 0 0 0 0
Neighs:    1 ave 1 max 1 min
Histogram: 1 0 0 0 0 0 0 0 0 0

Total # of neighbors = 1
Ave neighs/atom = 0.5
Ave special neighs/atom = 0
Neighbor list builds = 0
Dangerous builds = 0
  next a
  jump SELF loop
  displace_atoms atom2 move 0 -0.02 0
  run   1000
Neighbor list info ...
  update every 1 steps, delay 10 steps, check yes
  max neighbors/atom: 2000, page size: 100000
  master list distance cutoff = 2.8
  ghost atom cutoff = 2.8
  binsize = 1.4, bins = 29 29 29
  6 neighbor lists, perpetual/occasional/extra = 5 1 0
  (1) pair lj/expand/twopiece, perpetual, skip from (6)
      attributes: half, newton on
      pair build: skip
      stencil: none
      bin: none
  (2) pair soft/shift, perpetual, skip from (6)
      attributes: half, newton on
      pair build: skip
      stencil: none
      bin: none
  (3) pair zero, perpetual, skip from (6)
      attributes: half, newton on
      pair build: skip
      stencil: none
      bin: none
  (4) pair morse, perpetual, skip from (6)
      attributes: half, newton on
      pair build: skip
      stencil: none
      bin: none
  (5) compute pair/local, occasional, copy from (6)
      attributes: half, newton on
      pair build: copy
      stencil: none
      bin: none
  (6) neighbor class addition, perpetual
      attributes: half, newton on
      pair build: half/bin/newton
      stencil: half/bin/3d/newton
      bin: standard
Per MPI rank memory allocation (min/avg/max) = 9.201 | 9.201 | 9.201 Mbytes
Step Temp E_pair E_mol TotEng Press 
    7000            0 -0.00023450303            0 -0.00023450303 -1.465472e-08 
    7200            0 -0.00023450303            0 -0.00023450303 -1.465472e-08 
    7400            0 -0.00023450303            0 -0.00023450303 -1.465472e-08 
    7600            0 -0.00023450303            0 -0.00023450303 -1.465472e-08 
    7800            0 -0.00023450303            0 -0.00023450303 -1.465472e-08 
    8000            0 -0.00023450303            0 -0.00023450303 -1.465472e-08 
Loop time of 0.036165 on 1 procs for 1000 steps with 2 atoms

Performance: 2389050.187 tau/day, 27651.044 timesteps/s
43.2% CPU use with 1 MPI tasks x 1 OpenMP threads

MPI task timing breakdown:
Section |  min time  |  avg time  |  max time  |%varavg| %total
---------------------------------------------------------------
Pair    | 0.002582   | 0.002582   | 0.002582   |   0.0 |  7.14
Bond    | 0.002322   | 0.002322   | 0.002322   |   0.0 |  6.42
Neigh   | 0          | 0          | 0          |   0.0 |  0.00
Comm    | 0.003922   | 0.003922   | 0.003922   |   0.0 | 10.84
Output  | 0.012214   | 0.012214   | 0.012214   |   0.0 | 33.77
Modify  | 0.008228   | 0.008228   | 0.008228   |   0.0 | 22.75
Other   |            | 0.006897   |            |       | 19.07

Nlocal:    2 ave 2 max 2 min
Histogram: 1 0 0 0 0 0 0 0 0 0
Nghost:    0 ave 0 max 0 min
Histogram: 1 0 0 0 0 0 0 0 0 0
Neighs:    1 ave 1 max 1 min
Histogram: 1 0 0 0 0 0 0 0 0 0

Total # of neighbors = 1
Ave neighs/atom = 0.5
Ave special neighs/atom = 0
Neighbor list builds = 0
Dangerous builds = 0
  next a
  jump SELF loop
  displace_atoms atom2 move 0 -0.02 0
  run   1000
Neighbor list info ...
  update every 1 steps, delay 10 steps, check yes
  max neighbors/atom: 2000, page size: 100000
  master list distance cutoff = 2.8
  ghost atom cutoff = 2.8
  binsize = 1.4, bins = 29 29 29
  6 neighbor lists, perpetual/occasional/extra = 5 1 0
  (1) pair lj/expand/twopiece, perpetual, skip from (6)
      attributes: half, newton on
      pair build: skip
      stencil: none
      bin: none
  (2) pair soft/shift, perpetual, skip from (6)
      attributes: half, newton on
      pair build: skip
      stencil: none
      bin: none
  (3) pair zero, perpetual, skip from (6)
      attributes: half, newton on
      pair build: skip
      stencil: none
      bin: none
  (4) pair morse, perpetual, skip from (6)
      attributes: half, newton on
      pair build: skip
      stencil: none
      bin: none
  (5) compute pair/local, occasional, copy from (6)
      attributes: half, newton on
      pair build: copy
      stencil: none
      bin: none
  (6) neighbor class addition, perpetual
      attributes: half, newton on
      pair build: half/bin/newton
      stencil: half/bin/3d/newton
      bin: standard
Per MPI rank memory allocation (min/avg/max) = 9.201 | 9.201 | 9.201 Mbytes
Step Temp E_pair E_mol TotEng Press 
    8000            0 -0.00024734788            0 -0.00024734788 -1.545733e-08 
    8200            0 -0.00024734788            0 -0.00024734788 -1.545733e-08 
    8400            0 -0.00024734788            0 -0.00024734788 -1.545733e-08 
    8600            0 -0.00024734788            0 -0.00024734788 -1.545733e-08 
    8800            0 -0.00024734788            0 -0.00024734788 -1.545733e-08 
    9000            0 -0.00024734788            0 -0.00024734788 -1.545733e-08 
Loop time of 0.028837 on 1 procs for 1000 steps with 2 atoms

Performance: 2996150.776 tau/day, 34677.671 timesteps/s
0.0% CPU use with 1 MPI tasks x 1 OpenMP threads

MPI task timing breakdown:
Section |  min time  |  avg time  |  max time  |%varavg| %total
---------------------------------------------------------------
Pair    | 0.00323    | 0.00323    | 0.00323    |   0.0 | 11.20
Bond    | 0.002514   | 0.002514   | 0.002514   |   0.0 |  8.72
Neigh   | 0          | 0          | 0          |   0.0 |  0.00
Comm    | 0.00477    | 0.00477    | 0.00477    |   0.0 | 16.54
Output  | 0.008059   | 0.008059   | 0.008059   |   0.0 | 27.95
Modify  | 0.004662   | 0.004662   | 0.004662   |   0.0 | 16.17
Other   |            | 0.005602   |            |       | 19.43

Nlocal:    2 ave 2 max 2 min
Histogram: 1 0 0 0 0 0 0 0 0 0
Nghost:    0 ave 0 max 0 min
Histogram: 1 0 0 0 0 0 0 0 0 0
Neighs:    1 ave 1 max 1 min
Histogram: 1 0 0 0 0 0 0 0 0 0

Total # of neighbors = 1
Ave neighs/atom = 0.5
Ave special neighs/atom = 0
Neighbor list builds = 0
Dangerous builds = 0
  next a
  jump SELF loop
  displace_atoms atom2 move 0 -0.02 0
  run   1000
Neighbor list info ...
  update every 1 steps, delay 10 steps, check yes
  max neighbors/atom: 2000, page size: 100000
  master list distance cutoff = 2.8
  ghost atom cutoff = 2.8
  binsize = 1.4, bins = 29 29 29
  6 neighbor lists, perpetual/occasional/extra = 5 1 0
  (1) pair lj/expand/twopiece, perpetual, skip from (6)
      attributes: half, newton on
      pair build: skip
      stencil: none
      bin: none
  (2) pair soft/shift, perpetual, skip from (6)
      attributes: half, newton on
      pair build: skip
      stencil: none
      bin: none
  (3) pair zero, perpetual, skip from (6)
      attributes: half, newton on
      pair build: skip
      stencil: none
      bin: none
  (4) pair morse, perpetual, skip from (6)
      attributes: half, newton on
      pair build: skip
      stencil: none
      bin: none
  (5) compute pair/local, occasional, copy from (6)
      attributes: half, newton on
      pair build: copy
      stencil: none
      bin: none
  (6) neighbor class addition, perpetual
      attributes: half, newton on
      pair build: half/bin/newton
      stencil: half/bin/3d/newton
      bin: standard
Per MPI rank memory allocation (min/avg/max) = 9.201 | 9.201 | 9.201 Mbytes
Step Temp E_pair E_mol TotEng Press 
    9000            0 -0.00026102102            0 -0.00026102102 -1.6311684e-08 
    9200            0 -0.00026102102            0 -0.00026102102 -1.6311684e-08 
    9400            0 -0.00026102102            0 -0.00026102102 -1.6311684e-08 
    9600            0 -0.00026102102            0 -0.00026102102 -1.6311684e-08 
    9800            0 -0.00026102102            0 -0.00026102102 -1.6311684e-08 
   10000            0 -0.00026102102            0 -0.00026102102 -1.6311684e-08 
Loop time of 0.024029 on 1 procs for 1000 steps with 2 atoms

Performance: 3595655.255 tau/day, 41616.380 timesteps/s
0.0% CPU use with 1 MPI tasks x 1 OpenMP threads

MPI task timing breakdown:
Section |  min time  |  avg time  |  max time  |%varavg| %total
---------------------------------------------------------------
Pair    | 0.00244    | 0.00244    | 0.00244    |   0.0 | 10.15
Bond    | 0.001505   | 0.001505   | 0.001505   |   0.0 |  6.26
Neigh   | 0          | 0          | 0          |   0.0 |  0.00
Comm    | 0.004978   | 0.004978   | 0.004978   |   0.0 | 20.72
Output  | 0.007119   | 0.007119   | 0.007119   |   0.0 | 29.63
Modify  | 0.002874   | 0.002874   | 0.002874   |   0.0 | 11.96
Other   |            | 0.005113   |            |       | 21.28

Nlocal:    2 ave 2 max 2 min
Histogram: 1 0 0 0 0 0 0 0 0 0
Nghost:    0 ave 0 max 0 min
Histogram: 1 0 0 0 0 0 0 0 0 0
Neighs:    1 ave 1 max 1 min
Histogram: 1 0 0 0 0 0 0 0 0 0

Total # of neighbors = 1
Ave neighs/atom = 0.5
Ave special neighs/atom = 0
Neighbor list builds = 0
Dangerous builds = 0
  next a
  jump SELF loop
  displace_atoms atom2 move 0 -0.02 0
  run   1000
Neighbor list info ...
  update every 1 steps, delay 10 steps, check yes
  max neighbors/atom: 2000, page size: 100000
  master list distance cutoff = 2.8
  ghost atom cutoff = 2.8
  binsize = 1.4, bins = 29 29 29
  6 neighbor lists, perpetual/occasional/extra = 5 1 0
  (1) pair lj/expand/twopiece, perpetual, skip from (6)
      attributes: half, newton on
      pair build: skip
      stencil: none
      bin: none
  (2) pair soft/shift, perpetual, skip from (6)
      attributes: half, newton on
      pair build: skip
      stencil: none
      bin: none
  (3) pair zero, perpetual, skip from (6)
      attributes: half, newton on
      pair build: skip
      stencil: none
      bin: none
  (4) pair morse, perpetual, skip from (6)
      attributes: half, newton on
      pair build: skip
      stencil: none
      bin: none
  (5) compute pair/local, occasional, copy from (6)
      attributes: half, newton on
      pair build: copy
      stencil: none
      bin: none
  (6) neighbor class addition, perpetual
      attributes: half, newton on
      pair build: half/bin/newton
      stencil: half/bin/3d/newton
      bin: standard
Per MPI rank memory allocation (min/avg/max) = 9.201 | 9.201 | 9.201 Mbytes
Step Temp E_pair E_mol TotEng Press 
   10000            0 -0.00027558405            0 -0.00027558405 -1.7221629e-08 
   10200            0 -0.00027558405            0 -0.00027558405 -1.7221629e-08 
   10400            0 -0.00027558405            0 -0.00027558405 -1.7221629e-08 
   10600            0 -0.00027558405            0 -0.00027558405 -1.7221629e-08 
   10800            0 -0.00027558405            0 -0.00027558405 -1.7221629e-08 
   11000            0 -0.00027558405            0 -0.00027558405 -1.7221629e-08 
Loop time of 0.026379 on 1 procs for 1000 steps with 2 atoms

Performance: 3275332.652 tau/day, 37908.943 timesteps/s
59.2% CPU use with 1 MPI tasks x 1 OpenMP threads

MPI task timing breakdown:
Section |  min time  |  avg time  |  max time  |%varavg| %total
---------------------------------------------------------------
Pair    | 0.002239   | 0.002239   | 0.002239   |   0.0 |  8.49
Bond    | 0.002285   | 0.002285   | 0.002285   |   0.0 |  8.66
Neigh   | 0          | 0          | 0          |   0.0 |  0.00
Comm    | 0.00332    | 0.00332    | 0.00332    |   0.0 | 12.59
Output  | 0.008629   | 0.008629   | 0.008629   |   0.0 | 32.71
Modify  | 0.004061   | 0.004061   | 0.004061   |   0.0 | 15.39
Other   |            | 0.005845   |            |       | 22.16

Nlocal:    2 ave 2 max 2 min
Histogram: 1 0 0 0 0 0 0 0 0 0
Nghost:    0 ave 0 max 0 min
Histogram: 1 0 0 0 0 0 0 0 0 0
Neighs:    1 ave 1 max 1 min
Histogram: 1 0 0 0 0 0 0 0 0 0

Total # of neighbors = 1
Ave neighs/atom = 0.5
Ave special neighs/atom = 0
Neighbor list builds = 0
Dangerous builds = 0
  next a
  jump SELF loop
  displace_atoms atom2 move 0 -0.02 0
  run   1000
Neighbor list info ...
  update every 1 steps, delay 10 steps, check yes
  max neighbors/atom: 2000, page size: 100000
  master list distance cutoff = 2.8
  ghost atom cutoff = 2.8
  binsize = 1.4, bins = 29 29 29
  6 neighbor lists, perpetual/occasional/extra = 5 1 0
  (1) pair lj/expand/twopiece, perpetual, skip from (6)
      attributes: half, newton on
      pair build: skip
      stencil: none
      bin: none
  (2) pair soft/shift, perpetual, skip from (6)
      attributes: half, newton on
      pair build: skip
      stencil: none
      bin: none
  (3) pair zero, perpetual, skip from (6)
      attributes: half, newton on
      pair build: skip
      stencil: none
      bin: none
  (4) pair morse, perpetual, skip from (6)
      attributes: half, newton on
      pair build: skip
      stencil: none
      bin: none
  (5) compute pair/local, occasional, copy from (6)
      attributes: half, newton on
      pair build: copy
      stencil: none
      bin: none
  (6) neighbor class addition, perpetual
      attributes: half, newton on
      pair build: half/bin/newton
      stencil: half/bin/3d/newton
      bin: standard
Per MPI rank memory allocation (min/avg/max) = 9.201 | 9.201 | 9.201 Mbytes
Step Temp E_pair E_mol TotEng Press 
   11000            0 -0.00029110377            0 -0.00029110377 -1.8191337e-08 
   11200            0 -0.00029110377            0 -0.00029110377 -1.8191337e-08 
   11400            0 -0.00029110377            0 -0.00029110377 -1.8191337e-08 
   11600            0 -0.00029110377            0 -0.00029110377 -1.8191337e-08 
   11800            0 -0.00029110377            0 -0.00029110377 -1.8191337e-08 
   12000            0 -0.00029110377            0 -0.00029110377 -1.8191337e-08 
Loop time of 0.025918 on 1 procs for 1000 steps with 2 atoms

Performance: 3333590.551 tau/day, 38583.224 timesteps/s
0.0% CPU use with 1 MPI tasks x 1 OpenMP threads

MPI task timing breakdown:
Section |  min time  |  avg time  |  max time  |%varavg| %total
---------------------------------------------------------------
Pair    | 0.003047   | 0.003047   | 0.003047   |   0.0 | 11.76
Bond    | 0.001883   | 0.001883   | 0.001883   |   0.0 |  7.27
Neigh   | 0          | 0          | 0          |   0.0 |  0.00
Comm    | 0.003425   | 0.003425   | 0.003425   |   0.0 | 13.21
Output  | 0.008412   | 0.008412   | 0.008412   |   0.0 | 32.46
Modify  | 0.002901   | 0.002901   | 0.002901   |   0.0 | 11.19
Other   |            | 0.00625    |            |       | 24.11

Nlocal:    2 ave 2 max 2 min
Histogram: 1 0 0 0 0 0 0 0 0 0
Nghost:    0 ave 0 max 0 min
Histogram: 1 0 0 0 0 0 0 0 0 0
Neighs:    1 ave 1 max 1 min
Histogram: 1 0 0 0 0 0 0 0 0 0

Total # of neighbors = 1
Ave neighs/atom = 0.5
Ave special neighs/atom = 0
Neighbor list builds = 0
Dangerous builds = 0
  next a
  jump SELF loop
  displace_atoms atom2 move 0 -0.02 0
  run   1000
Neighbor list info ...
  update every 1 steps, delay 10 steps, check yes
  max neighbors/atom: 2000, page size: 100000
  master list distance cutoff = 2.8
  ghost atom cutoff = 2.8
  binsize = 1.4, bins = 29 29 29
  6 neighbor lists, perpetual/occasional/extra = 5 1 0
  (1) pair lj/expand/twopiece, perpetual, skip from (6)
      attributes: half, newton on
      pair build: skip
      stencil: none
      bin: none
  (2) pair soft/shift, perpetual, skip from (6)
      attributes: half, newton on
      pair build: skip
      stencil: none
      bin: none
  (3) pair zero, perpetual, skip from (6)
      attributes: half, newton on
      pair build: skip
      stencil: none
      bin: none
  (4) pair morse, perpetual, skip from (6)
      attributes: half, newton on
      pair build: skip
      stencil: none
      bin: none
  (5) compute pair/local, occasional, copy from (6)
      attributes: half, newton on
      pair build: copy
      stencil: none
      bin: none
  (6) neighbor class addition, perpetual
      attributes: half, newton on
      pair build: half/bin/newton
      stencil: half/bin/3d/newton
      bin: standard
Per MPI rank memory allocation (min/avg/max) = 9.201 | 9.201 | 9.201 Mbytes
Step Temp E_pair E_mol TotEng Press 
   12000            0 -0.00030765267            0 -0.00030765267 -1.9225333e-08 
   12200            0 -0.00030765267            0 -0.00030765267 -1.9225333e-08 
   12400            0 -0.00030765267            0 -0.00030765267 -1.9225333e-08 
   12600            0 -0.00030765267            0 -0.00030765267 -1.9225333e-08 
   12800            0 -0.00030765267            0 -0.00030765267 -1.9225333e-08 
   13000            0 -0.00030765267            0 -0.00030765267 -1.9225333e-08 
Loop time of 0.022516 on 1 procs for 1000 steps with 2 atoms

Performance: 3837271.279 tau/day, 44412.862 timesteps/s
0.0% CPU use with 1 MPI tasks x 1 OpenMP threads

MPI task timing breakdown:
Section |  min time  |  avg time  |  max time  |%varavg| %total
---------------------------------------------------------------
Pair    | 0.003742   | 0.003742   | 0.003742   |   0.0 | 16.62
Bond    | 0.001655   | 0.001655   | 0.001655   |   0.0 |  7.35
Neigh   | 0          | 0          | 0          |   0.0 |  0.00
Comm    | 0.002775   | 0.002775   | 0.002775   |   0.0 | 12.32
Output  | 0.005254   | 0.005254   | 0.005254   |   0.0 | 23.33
Modify  | 0.004652   | 0.004652   | 0.004652   |   0.0 | 20.66
Other   |            | 0.004438   |            |       | 19.71

Nlocal:    2 ave 2 max 2 min
Histogram: 1 0 0 0 0 0 0 0 0 0
Nghost:    0 ave 0 max 0 min
Histogram: 1 0 0 0 0 0 0 0 0 0
Neighs:    1 ave 1 max 1 min
Histogram: 1 0 0 0 0 0 0 0 0 0

Total # of neighbors = 1
Ave neighs/atom = 0.5
Ave special neighs/atom = 0
Neighbor list builds = 0
Dangerous builds = 0
  next a
  jump SELF loop
  displace_atoms atom2 move 0 -0.02 0
  run   1000
Neighbor list info ...
  update every 1 steps, delay 10 steps, check yes
  max neighbors/atom: 2000, page size: 100000
  master list distance cutoff = 2.8
  ghost atom cutoff = 2.8
  binsize = 1.4, bins = 29 29 29
  6 neighbor lists, perpetual/occasional/extra = 5 1 0
  (1) pair lj/expand/twopiece, perpetual, skip from (6)
      attributes: half, newton on
      pair build: skip
      stencil: none
      bin: none
  (2) pair soft/shift, perpetual, skip from (6)
      attributes: half, newton on
      pair build: skip
      stencil: none
      bin: none
  (3) pair zero, perpetual, skip from (6)
      attributes: half, newton on
      pair build: skip
      stencil: none
      bin: none
  (4) pair morse, perpetual, skip from (6)
      attributes: half, newton on
      pair build: skip
      stencil: none
      bin: none
  (5) compute pair/local, occasional, copy from (6)
      attributes: half, newton on
      pair build: copy
      stencil: none
      bin: none
  (6) neighbor class addition, perpetual
      attributes: half, newton on
      pair build: half/bin/newton
      stencil: half/bin/3d/newton
      bin: standard
Per MPI rank memory allocation (min/avg/max) = 9.201 | 9.201 | 9.201 Mbytes
Step Temp E_pair E_mol TotEng Press 
   13000            0 -0.00032530948            0 -0.00032530948 -2.0328535e-08 
   13200            0 -0.00032530948            0 -0.00032530948 -2.0328535e-08 
   13400            0 -0.00032530948            0 -0.00032530948 -2.0328535e-08 
   13600            0 -0.00032530948            0 -0.00032530948 -2.0328535e-08 
   13800            0 -0.00032530948            0 -0.00032530948 -2.0328535e-08 
   14000            0 -0.00032530948            0 -0.00032530948 -2.0328535e-08 
Loop time of 0.031244 on 1 procs for 1000 steps with 2 atoms

Performance: 2765330.942 tau/day, 32006.145 timesteps/s
50.0% CPU use with 1 MPI tasks x 1 OpenMP threads

MPI task timing breakdown:
Section |  min time  |  avg time  |  max time  |%varavg| %total
---------------------------------------------------------------
Pair    | 0.003779   | 0.003779   | 0.003779   |   0.0 | 12.10
Bond    | 0.003393   | 0.003393   | 0.003393   |   0.0 | 10.86
Neigh   | 0          | 0          | 0          |   0.0 |  0.00
Comm    | 0.006534   | 0.006534   | 0.006534   |   0.0 | 20.91
Output  | 0.007228   | 0.007228   | 0.007228   |   0.0 | 23.13
Modify  | 0.005272   | 0.005272   | 0.005272   |   0.0 | 16.87
Other   |            | 0.005038   |            |       | 16.12

Nlocal:    2 ave 2 max 2 min
Histogram: 1 0 0 0 0 0 0 0 0 0
Nghost:    0 ave 0 max 0 min
Histogram: 1 0 0 0 0 0 0 0 0 0
Neighs:    1 ave 1 max 1 min
Histogram: 1 0 0 0 0 0 0 0 0 0

Total # of neighbors = 1
Ave neighs/atom = 0.5
Ave special neighs/atom = 0
Neighbor list builds = 0
Dangerous builds = 0
  next a
  jump SELF loop
  displace_atoms atom2 move 0 -0.02 0
  run   1000
Neighbor list info ...
  update every 1 steps, delay 10 steps, check yes
  max neighbors/atom: 2000, page size: 100000
  master list distance cutoff = 2.8
  ghost atom cutoff = 2.8
  binsize = 1.4, bins = 29 29 29
  6 neighbor lists, perpetual/occasional/extra = 5 1 0
  (1) pair lj/expand/twopiece, perpetual, skip from (6)
      attributes: half, newton on
      pair build: skip
      stencil: none
      bin: none
  (2) pair soft/shift, perpetual, skip from (6)
      attributes: half, newton on
      pair build: skip
      stencil: none
      bin: none
  (3) pair zero, perpetual, skip from (6)
      attributes: half, newton on
      pair build: skip
      stencil: none
      bin: none
  (4) pair morse, perpetual, skip from (6)
      attributes: half, newton on
      pair build: skip
      stencil: none
      bin: none
  (5) compute pair/local, occasional, copy from (6)
      attributes: half, newton on
      pair build: copy
      stencil: none
      bin: none
  (6) neighbor class addition, perpetual
      attributes: half, newton on
      pair build: half/bin/newton
      stencil: half/bin/3d/newton
      bin: standard
Per MPI rank memory allocation (min/avg/max) = 9.201 | 9.201 | 9.201 Mbytes
Step Temp E_pair E_mol TotEng Press 
   14000            0 -0.00034415977            0 -0.00034415977 -2.1506283e-08 
   14200            0 -0.00034415977            0 -0.00034415977 -2.1506283e-08 
   14400            0 -0.00034415977            0 -0.00034415977 -2.1506283e-08 
   14600            0 -0.00034415977            0 -0.00034415977 -2.1506283e-08 
   14800            0 -0.00034415977            0 -0.00034415977 -2.1506283e-08 
   15000            0 -0.00034415977            0 -0.00034415977 -2.1506283e-08 
Loop time of 0.027568 on 1 procs for 1000 steps with 2 atoms

Performance: 3134068.490 tau/day, 36273.941 timesteps/s
0.0% CPU use with 1 MPI tasks x 1 OpenMP threads

MPI task timing breakdown:
Section |  min time  |  avg time  |  max time  |%varavg| %total
---------------------------------------------------------------
Pair    | 0.001884   | 0.001884   | 0.001884   |   0.0 |  6.83
Bond    | 0.004615   | 0.004615   | 0.004615   |   0.0 | 16.74
Neigh   | 0          | 0          | 0          |   0.0 |  0.00
Comm    | 0.003381   | 0.003381   | 0.003381   |   0.0 | 12.26
Output  | 0.005239   | 0.005239   | 0.005239   |   0.0 | 19.00
Modify  | 0.002819   | 0.002819   | 0.002819   |   0.0 | 10.23
Other   |            | 0.00963    |            |       | 34.93

Nlocal:    2 ave 2 max 2 min
Histogram: 1 0 0 0 0 0 0 0 0 0
Nghost:    0 ave 0 max 0 min
Histogram: 1 0 0 0 0 0 0 0 0 0
Neighs:    1 ave 1 max 1 min
Histogram: 1 0 0 0 0 0 0 0 0 0

Total # of neighbors = 1
Ave neighs/atom = 0.5
Ave special neighs/atom = 0
Neighbor list builds = 0
Dangerous builds = 0
  next a
  jump SELF loop
  displace_atoms atom2 move 0 -0.02 0
  run   1000
Neighbor list info ...
  update every 1 steps, delay 10 steps, check yes
  max neighbors/atom: 2000, page size: 100000
  master list distance cutoff = 2.8
  ghost atom cutoff = 2.8
  binsize = 1.4, bins = 29 29 29
  6 neighbor lists, perpetual/occasional/extra = 5 1 0
  (1) pair lj/expand/twopiece, perpetual, skip from (6)
      attributes: half, newton on
      pair build: skip
      stencil: none
      bin: none
  (2) pair soft/shift, perpetual, skip from (6)
      attributes: half, newton on
      pair build: skip
      stencil: none
      bin: none
  (3) pair zero, perpetual, skip from (6)
      attributes: half, newton on
      pair build: skip
      stencil: none
      bin: none
  (4) pair morse, perpetual, skip from (6)
      attributes: half, newton on
      pair build: skip
      stencil: none
      bin: none
  (5) compute pair/local, occasional, copy from (6)
      attributes: half, newton on
      pair build: copy
      stencil: none
      bin: none
  (6) neighbor class addition, perpetual
      attributes: half, newton on
      pair build: half/bin/newton
      stencil: half/bin/3d/newton
      bin: standard
Per MPI rank memory allocation (min/avg/max) = 9.201 | 9.201 | 9.201 Mbytes
Step Temp E_pair E_mol TotEng Press 
   15000            0 -0.00036429661            0 -0.00036429661 -2.2764389e-08 
   15200            0 -0.00036429661            0 -0.00036429661 -2.2764389e-08 
   15400            0 -0.00036429661            0 -0.00036429661 -2.2764389e-08 
   15600            0 -0.00036429661            0 -0.00036429661 -2.2764389e-08 
   15800            0 -0.00036429661            0 -0.00036429661 -2.2764389e-08 
   16000            0 -0.00036429661            0 -0.00036429661 -2.2764389e-08 
Loop time of 0.023152 on 1 procs for 1000 steps with 2 atoms

Performance: 3731859.013 tau/day, 43192.813 timesteps/s
67.5% CPU use with 1 MPI tasks x 1 OpenMP threads

MPI task timing breakdown:
Section |  min time  |  avg time  |  max time  |%varavg| %total
---------------------------------------------------------------
Pair    | 0.002679   | 0.002679   | 0.002679   |   0.0 | 11.57
Bond    | 0.001599   | 0.001599   | 0.001599   |   0.0 |  6.91
Neigh   | 0          | 0          | 0          |   0.0 |  0.00
Comm    | 0.003075   | 0.003075   | 0.003075   |   0.0 | 13.28
Output  | 0.005728   | 0.005728   | 0.005728   |   0.0 | 24.74
Modify  | 0.002994   | 0.002994   | 0.002994   |   0.0 | 12.93
Other   |            | 0.007077   |            |       | 30.57

Nlocal:    2 ave 2 max 2 min
Histogram: 1 0 0 0 0 0 0 0 0 0
Nghost:    0 ave 0 max 0 min
Histogram: 1 0 0 0 0 0 0 0 0 0
Neighs:    1 ave 1 max 1 min
Histogram: 1 0 0 0 0 0 0 0 0 0

Total # of neighbors = 1
Ave neighs/atom = 0.5
Ave special neighs/atom = 0
Neighbor list builds = 0
Dangerous builds = 0
  next a
  jump SELF loop
  displace_atoms atom2 move 0 -0.02 0
  run   1000
Neighbor list info ...
  update every 1 steps, delay 10 steps, check yes
  max neighbors/atom: 2000, page size: 100000
  master list distance cutoff = 2.8
  ghost atom cutoff = 2.8
  binsize = 1.4, bins = 29 29 29
  6 neighbor lists, perpetual/occasional/extra = 5 1 0
  (1) pair lj/expand/twopiece, perpetual, skip from (6)
      attributes: half, newton on
      pair build: skip
      stencil: none
      bin: none
  (2) pair soft/shift, perpetual, skip from (6)
      attributes: half, newton on
      pair build: skip
      stencil: none
      bin: none
  (3) pair zero, perpetual, skip from (6)
      attributes: half, newton on
      pair build: skip
      stencil: none
      bin: none
  (4) pair morse, perpetual, skip from (6)
      attributes: half, newton on
      pair build: skip
      stencil: none
      bin: none
  (5) compute pair/local, occasional, copy from (6)
      attributes: half, newton on
      pair build: copy
      stencil: none
      bin: none
  (6) neighbor class addition, perpetual
      attributes: half, newton on
      pair build: half/bin/newton
      stencil: half/bin/3d/newton
      bin: standard
Per MPI rank memory allocation (min/avg/max) = 9.201 | 9.201 | 9.201 Mbytes
Step Temp E_pair E_mol TotEng Press 
   16000            0 -0.00038582131            0 -0.00038582131 -2.4109178e-08 
   16200            0 -0.00038582131            0 -0.00038582131 -2.4109178e-08 
   16400            0 -0.00038582131            0 -0.00038582131 -2.4109178e-08 
   16600            0 -0.00038582131            0 -0.00038582131 -2.4109178e-08 
   16800            0 -0.00038582131            0 -0.00038582131 -2.4109178e-08 
   17000            0 -0.00038582131            0 -0.00038582131 -2.4109178e-08 
Loop time of 0.019393 on 1 procs for 1000 steps with 2 atoms

Performance: 4455215.801 tau/day, 51564.998 timesteps/s
0.0% CPU use with 1 MPI tasks x 1 OpenMP threads

MPI task timing breakdown:
Section |  min time  |  avg time  |  max time  |%varavg| %total
---------------------------------------------------------------
Pair    | 0.003039   | 0.003039   | 0.003039   |   0.0 | 15.67
Bond    | 0.001572   | 0.001572   | 0.001572   |   0.0 |  8.11
Neigh   | 0          | 0          | 0          |   0.0 |  0.00
Comm    | 0.002892   | 0.002892   | 0.002892   |   0.0 | 14.91
Output  | 0.003727   | 0.003727   | 0.003727   |   0.0 | 19.22
Modify  | 0.003411   | 0.003411   | 0.003411   |   0.0 | 17.59
Other   |            | 0.004752   |            |       | 24.50

Nlocal:    2 ave 2 max 2 min
Histogram: 1 0 0 0 0 0 0 0 0 0
Nghost:    0 ave 0 max 0 min
Histogram: 1 0 0 0 0 0 0 0 0 0
Neighs:    1 ave 1 max 1 min
Histogram: 1 0 0 0 0 0 0 0 0 0

Total # of neighbors = 1
Ave neighs/atom = 0.5
Ave special neighs/atom = 0
Neighbor list builds = 0
Dangerous builds = 0
  next a
  jump SELF loop
  displace_atoms atom2 move 0 -0.02 0
  run   1000
Neighbor list info ...
  update every 1 steps, delay 10 steps, check yes
  max neighbors/atom: 2000, page size: 100000
  master list distance cutoff = 2.8
  ghost atom cutoff = 2.8
  binsize = 1.4, bins = 29 29 29
  6 neighbor lists, perpetual/occasional/extra = 5 1 0
  (1) pair lj/expand/twopiece, perpetual, skip from (6)
      attributes: half, newton on
      pair build: skip
      stencil: none
      bin: none
  (2) pair soft/shift, perpetual, skip from (6)
      attributes: half, newton on
      pair build: skip
      stencil: none
      bin: none
  (3) pair zero, perpetual, skip from (6)
      attributes: half, newton on
      pair build: skip
      stencil: none
      bin: none
  (4) pair morse, perpetual, skip from (6)
      attributes: half, newton on
      pair build: skip
      stencil: none
      bin: none
  (5) compute pair/local, occasional, copy from (6)
      attributes: half, newton on
      pair build: copy
      stencil: none
      bin: none
  (6) neighbor class addition, perpetual
      attributes: half, newton on
      pair build: half/bin/newton
      stencil: half/bin/3d/newton
      bin: standard
Per MPI rank memory allocation (min/avg/max) = 9.201 | 9.201 | 9.201 Mbytes
Step Temp E_pair E_mol TotEng Press 
   17000            0 -0.00040884425            0 -0.00040884425 -2.554754e-08 
   17200            0 -0.00040884425            0 -0.00040884425 -2.554754e-08 
   17400            0 -0.00040884425            0 -0.00040884425 -2.554754e-08 
   17600            0 -0.00040884425            0 -0.00040884425 -2.554754e-08 
   17800            0 -0.00040884425            0 -0.00040884425 -2.554754e-08 
   18000            0 -0.00040884425            0 -0.00040884425 -2.554754e-08 
Loop time of 0.017792 on 1 procs for 1000 steps with 2 atoms

Performance: 4856115.116 tau/day, 56205.036 timesteps/s
0.0% CPU use with 1 MPI tasks x 1 OpenMP threads

MPI task timing breakdown:
Section |  min time  |  avg time  |  max time  |%varavg| %total
---------------------------------------------------------------
Pair    | 0.001903   | 0.001903   | 0.001903   |   0.0 | 10.70
Bond    | 0.001678   | 0.001678   | 0.001678   |   0.0 |  9.43
Neigh   | 0          | 0          | 0          |   0.0 |  0.00
Comm    | 0.00281    | 0.00281    | 0.00281    |   0.0 | 15.79
Output  | 0.00421    | 0.00421    | 0.00421    |   0.0 | 23.66
Modify  | 0.002906   | 0.002906   | 0.002906   |   0.0 | 16.33
Other   |            | 0.004285   |            |       | 24.08

Nlocal:    2 ave 2 max 2 min
Histogram: 1 0 0 0 0 0 0 0 0 0
Nghost:    0 ave 0 max 0 min
Histogram: 1 0 0 0 0 0 0 0 0 0
Neighs:    1 ave 1 max 1 min
Histogram: 1 0 0 0 0 0 0 0 0 0

Total # of neighbors = 1
Ave neighs/atom = 0.5
Ave special neighs/atom = 0
Neighbor list builds = 0
Dangerous builds = 0
  next a
  jump SELF loop
  displace_atoms atom2 move 0 -0.02 0
  run   1000
Neighbor list info ...
  update every 1 steps, delay 10 steps, check yes
  max neighbors/atom: 2000, page size: 100000
  master list distance cutoff = 2.8
  ghost atom cutoff = 2.8
  binsize = 1.4, bins = 29 29 29
  6 neighbor lists, perpetual/occasional/extra = 5 1 0
  (1) pair lj/expand/twopiece, perpetual, skip from (6)
      attributes: half, newton on
      pair build: skip
      stencil: none
      bin: none
  (2) pair soft/shift, perpetual, skip from (6)
      attributes: half, newton on
      pair build: skip
      stencil: none
      bin: none
  (3) pair zero, perpetual, skip from (6)
      attributes: half, newton on
      pair build: skip
      stencil: none
      bin: none
  (4) pair morse, perpetual, skip from (6)
      attributes: half, newton on
      pair build: skip
      stencil: none
      bin: none
  (5) compute pair/local, occasional, copy from (6)
      attributes: half, newton on
      pair build: copy
      stencil: none
      bin: none
  (6) neighbor class addition, perpetual
      attributes: half, newton on
      pair build: half/bin/newton
      stencil: half/bin/3d/newton
      bin: standard
Per MPI rank memory allocation (min/avg/max) = 9.201 | 9.201 | 9.201 Mbytes
Step Temp E_pair E_mol TotEng Press 
   18000            0 -0.00043348578            0 -0.00043348578 -2.7086987e-08 
   18200            0 -0.00043348578            0 -0.00043348578 -2.7086987e-08 
   18400            0 -0.00043348578            0 -0.00043348578 -2.7086987e-08 
   18600            0 -0.00043348578            0 -0.00043348578 -2.7086987e-08 
   18800            0 -0.00043348578            0 -0.00043348578 -2.7086987e-08 
   19000            0 -0.00043348578            0 -0.00043348578 -2.7086987e-08 
Loop time of 0.015976 on 1 procs for 1000 steps with 2 atoms

Performance: 5408112.170 tau/day, 62593.891 timesteps/s
97.8% CPU use with 1 MPI tasks x 1 OpenMP threads

MPI task timing breakdown:
Section |  min time  |  avg time  |  max time  |%varavg| %total
---------------------------------------------------------------
Pair    | 0.001788   | 0.001788   | 0.001788   |   0.0 | 11.19
Bond    | 0.001432   | 0.001432   | 0.001432   |   0.0 |  8.96
Neigh   | 0          | 0          | 0          |   0.0 |  0.00
Comm    | 0.002792   | 0.002792   | 0.002792   |   0.0 | 17.48
Output  | 0.003147   | 0.003147   | 0.003147   |   0.0 | 19.70
Modify  | 0.002642   | 0.002642   | 0.002642   |   0.0 | 16.54
Other   |            | 0.004175   |            |       | 26.13

Nlocal:    2 ave 2 max 2 min
Histogram: 1 0 0 0 0 0 0 0 0 0
Nghost:    0 ave 0 max 0 min
Histogram: 1 0 0 0 0 0 0 0 0 0
Neighs:    1 ave 1 max 1 min
Histogram: 1 0 0 0 0 0 0 0 0 0

Total # of neighbors = 1
Ave neighs/atom = 0.5
Ave special neighs/atom = 0
Neighbor list builds = 0
Dangerous builds = 0
  next a
  jump SELF loop
  displace_atoms atom2 move 0 -0.02 0
  run   1000
Neighbor list info ...
  update every 1 steps, delay 10 steps, check yes
  max neighbors/atom: 2000, page size: 100000
  master list distance cutoff = 2.8
  ghost atom cutoff = 2.8
  binsize = 1.4, bins = 29 29 29
  6 neighbor lists, perpetual/occasional/extra = 5 1 0
  (1) pair lj/expand/twopiece, perpetual, skip from (6)
      attributes: half, newton on
      pair build: skip
      stencil: none
      bin: none
  (2) pair soft/shift, perpetual, skip from (6)
      attributes: half, newton on
      pair build: skip
      stencil: none
      bin: none
  (3) pair zero, perpetual, skip from (6)
      attributes: half, newton on
      pair build: skip
      stencil: none
      bin: none
  (4) pair morse, perpetual, skip from (6)
      attributes: half, newton on
      pair build: skip
      stencil: none
      bin: none
  (5) compute pair/local, occasional, copy from (6)
      attributes: half, newton on
      pair build: copy
      stencil: none
      bin: none
  (6) neighbor class addition, perpetual
      attributes: half, newton on
      pair build: half/bin/newton
      stencil: half/bin/3d/newton
      bin: standard
Per MPI rank memory allocation (min/avg/max) = 9.201 | 9.201 | 9.201 Mbytes
Step Temp E_pair E_mol TotEng Press 
   19000            0 -0.00045987723            0 -0.00045987723 -2.8735715e-08 
   19200            0 -0.00045987723            0 -0.00045987723 -2.8735715e-08 
   19400            0 -0.00045987723            0 -0.00045987723 -2.8735715e-08 
   19600            0 -0.00045987723            0 -0.00045987723 -2.8735715e-08 
   19800            0 -0.00045987723            0 -0.00045987723 -2.8735715e-08 
   20000            0 -0.00045987723            0 -0.00045987723 -2.8735715e-08 
Loop time of 0.027301 on 1 procs for 1000 steps with 2 atoms

Performance: 3164719.245 tau/day, 36628.695 timesteps/s
57.2% CPU use with 1 MPI tasks x 1 OpenMP threads

MPI task timing breakdown:
Section |  min time  |  avg time  |  max time  |%varavg| %total
---------------------------------------------------------------
Pair    | 0.002423   | 0.002423   | 0.002423   |   0.0 |  8.88
Bond    | 0.00196    | 0.00196    | 0.00196    |   0.0 |  7.18
Neigh   | 0          | 0          | 0          |   0.0 |  0.00
Comm    | 0.003336   | 0.003336   | 0.003336   |   0.0 | 12.22
Output  | 0.01096    | 0.01096    | 0.01096    |   0.0 | 40.15
Modify  | 0.003435   | 0.003435   | 0.003435   |   0.0 | 12.58
Other   |            | 0.005187   |            |       | 19.00

Nlocal:    2 ave 2 max 2 min
Histogram: 1 0 0 0 0 0 0 0 0 0
Nghost:    0 ave 0 max 0 min
Histogram: 1 0 0 0 0 0 0 0 0 0
Neighs:    1 ave 1 max 1 min
Histogram: 1 0 0 0 0 0 0 0 0 0

Total # of neighbors = 1
Ave neighs/atom = 0.5
Ave special neighs/atom = 0
Neighbor list builds = 0
Dangerous builds = 0
  next a
  jump SELF loop
  displace_atoms atom2 move 0 -0.02 0
  run   1000
Neighbor list info ...
  update every 1 steps, delay 10 steps, check yes
  max neighbors/atom: 2000, page size: 100000
  master list distance cutoff = 2.8
  ghost atom cutoff = 2.8
  binsize = 1.4, bins = 29 29 29
  6 neighbor lists, perpetual/occasional/extra = 5 1 0
  (1) pair lj/expand/twopiece, perpetual, skip from (6)
      attributes: half, newton on
      pair build: skip
      stencil: none
      bin: none
  (2) pair soft/shift, perpetual, skip from (6)
      attributes: half, newton on
      pair build: skip
      stencil: none
      bin: none
  (3) pair zero, perpetual, skip from (6)
      attributes: half, newton on
      pair build: skip
      stencil: none
      bin: none
  (4) pair morse, perpetual, skip from (6)
      attributes: half, newton on
      pair build: skip
      stencil: none
      bin: none
  (5) compute pair/local, occasional, copy from (6)
      attributes: half, newton on
      pair build: copy
      stencil: none
      bin: none
  (6) neighbor class addition, perpetual
      attributes: half, newton on
      pair build: half/bin/newton
      stencil: half/bin/3d/newton
      bin: standard
Per MPI rank memory allocation (min/avg/max) = 9.201 | 9.201 | 9.201 Mbytes
Step Temp E_pair E_mol TotEng Press 
   20000            0 -0.00048816204            0 -0.00048816204 -3.0502677e-08 
   20200            0 -0.00048816204            0 -0.00048816204 -3.0502677e-08 
   20400            0 -0.00048816204            0 -0.00048816204 -3.0502677e-08 
   20600            0 -0.00048816204            0 -0.00048816204 -3.0502677e-08 
   20800            0 -0.00048816204            0 -0.00048816204 -3.0502677e-08 
   21000            0 -0.00048816204            0 -0.00048816204 -3.0502677e-08 
Loop time of 0.021475 on 1 procs for 1000 steps with 2 atoms

Performance: 4023282.895 tau/day, 46565.774 timesteps/s
72.8% CPU use with 1 MPI tasks x 1 OpenMP threads

MPI task timing breakdown:
Section |  min time  |  avg time  |  max time  |%varavg| %total
---------------------------------------------------------------
Pair    | 0.003009   | 0.003009   | 0.003009   |   0.0 | 14.01
Bond    | 0.001564   | 0.001564   | 0.001564   |   0.0 |  7.28
Neigh   | 0          | 0          | 0          |   0.0 |  0.00
Comm    | 0.003114   | 0.003114   | 0.003114   |   0.0 | 14.50
Output  | 0.004631   | 0.004631   | 0.004631   |   0.0 | 21.56
Modify  | 0.00438    | 0.00438    | 0.00438    |   0.0 | 20.40
Other   |            | 0.004777   |            |       | 22.24

Nlocal:    2 ave 2 max 2 min
Histogram: 1 0 0 0 0 0 0 0 0 0
Nghost:    0 ave 0 max 0 min
Histogram: 1 0 0 0 0 0 0 0 0 0
Neighs:    1 ave 1 max 1 min
Histogram: 1 0 0 0 0 0 0 0 0 0

Total # of neighbors = 1
Ave neighs/atom = 0.5
Ave special neighs/atom = 0
Neighbor list builds = 0
Dangerous builds = 0
  next a
  jump SELF loop
  displace_atoms atom2 move 0 -0.02 0
  run   1000
Neighbor list info ...
  update every 1 steps, delay 10 steps, check yes
  max neighbors/atom: 2000, page size: 100000
  master list distance cutoff = 2.8
  ghost atom cutoff = 2.8
  binsize = 1.4, bins = 29 29 29
  6 neighbor lists, perpetual/occasional/extra = 5 1 0
  (1) pair lj/expand/twopiece, perpetual, skip from (6)
      attributes: half, newton on
      pair build: skip
      stencil: none
      bin: none
  (2) pair soft/shift, perpetual, skip from (6)
      attributes: half, newton on
      pair build: skip
      stencil: none
      bin: none
  (3) pair zero, perpetual, skip from (6)
      attributes: half, newton on
      pair build: skip
      stencil: none
      bin: none
  (4) pair morse, perpetual, skip from (6)
      attributes: half, newton on
      pair build: skip
      stencil: none
      bin: none
  (5) compute pair/local, occasional, copy from (6)
      attributes: half, newton on
      pair build: copy
      stencil: none
      bin: none
  (6) neighbor class addition, perpetual
      attributes: half, newton on
      pair build: half/bin/newton
      stencil: half/bin/3d/newton
      bin: standard
Per MPI rank memory allocation (min/avg/max) = 9.201 | 9.201 | 9.201 Mbytes
Step Temp E_pair E_mol TotEng Press 
   21000            0 -0.000518497            0 -0.000518497 -3.2397657e-08 
   21200            0 -0.000518497            0 -0.000518497 -3.2397657e-08 
   21400            0 -0.000518497            0 -0.000518497 -3.2397657e-08 
   21600            0 -0.000518497            0 -0.000518497 -3.2397657e-08 
   21800            0 -0.000518497            0 -0.000518497 -3.2397657e-08 
   22000            0 -0.000518497            0 -0.000518497 -3.2397657e-08 
Loop time of 0.021135 on 1 procs for 1000 steps with 2 atoms

Performance: 4088005.680 tau/day, 47314.881 timesteps/s
73.9% CPU use with 1 MPI tasks x 1 OpenMP threads

MPI task timing breakdown:
Section |  min time  |  avg time  |  max time  |%varavg| %total
---------------------------------------------------------------
Pair    | 0.002638   | 0.002638   | 0.002638   |   0.0 | 12.48
Bond    | 0.001667   | 0.001667   | 0.001667   |   0.0 |  7.89
Neigh   | 0          | 0          | 0          |   0.0 |  0.00
Comm    | 0.002936   | 0.002936   | 0.002936   |   0.0 | 13.89
Output  | 0.005866   | 0.005866   | 0.005866   |   0.0 | 27.75
Modify  | 0.003366   | 0.003366   | 0.003366   |   0.0 | 15.93
Other   |            | 0.004662   |            |       | 22.06

Nlocal:    2 ave 2 max 2 min
Histogram: 1 0 0 0 0 0 0 0 0 0
Nghost:    0 ave 0 max 0 min
Histogram: 1 0 0 0 0 0 0 0 0 0
Neighs:    1 ave 1 max 1 min
Histogram: 1 0 0 0 0 0 0 0 0 0

Total # of neighbors = 1
Ave neighs/atom = 0.5
Ave special neighs/atom = 0
Neighbor list builds = 0
Dangerous builds = 0
  next a
  jump SELF loop
  displace_atoms atom2 move 0 -0.02 0
  run   1000
Neighbor list info ...
  update every 1 steps, delay 10 steps, check yes
  max neighbors/atom: 2000, page size: 100000
  master list distance cutoff = 2.8
  ghost atom cutoff = 2.8
  binsize = 1.4, bins = 29 29 29
  6 neighbor lists, perpetual/occasional/extra = 5 1 0
  (1) pair lj/expand/twopiece, perpetual, skip from (6)
      attributes: half, newton on
      pair build: skip
      stencil: none
      bin: none
  (2) pair soft/shift, perpetual, skip from (6)
      attributes: half, newton on
      pair build: skip
      stencil: none
      bin: none
  (3) pair zero, perpetual, skip from (6)
      attributes: half, newton on
      pair build: skip
      stencil: none
      bin: none
  (4) pair morse, perpetual, skip from (6)
      attributes: half, newton on
      pair build: skip
      stencil: none
      bin: none
  (5) compute pair/local, occasional, copy from (6)
      attributes: half, newton on
      pair build: copy
      stencil: none
      bin: none
  (6) neighbor class addition, perpetual
      attributes: half, newton on
      pair build: half/bin/newton
      stencil: half/bin/3d/newton
      bin: standard
Per MPI rank memory allocation (min/avg/max) = 9.201 | 9.201 | 9.201 Mbytes
Step Temp E_pair E_mol TotEng Press 
   22000            0 -0.00055105365            0 -0.00055105365 -3.4431359e-08 
   22200            0 -0.00055105365            0 -0.00055105365 -3.4431359e-08 
   22400            0 -0.00055105365            0 -0.00055105365 -3.4431359e-08 
   22600            0 -0.00055105365            0 -0.00055105365 -3.4431359e-08 
   22800            0 -0.00055105365            0 -0.00055105365 -3.4431359e-08 
   23000            0 -0.00055105365            0 -0.00055105365 -3.4431359e-08 
Loop time of 0.024297 on 1 procs for 1000 steps with 2 atoms

Performance: 3555994.572 tau/day, 41157.345 timesteps/s
64.3% CPU use with 1 MPI tasks x 1 OpenMP threads

MPI task timing breakdown:
Section |  min time  |  avg time  |  max time  |%varavg| %total
---------------------------------------------------------------
Pair    | 0.002171   | 0.002171   | 0.002171   |   0.0 |  8.94
Bond    | 0.001637   | 0.001637   | 0.001637   |   0.0 |  6.74
Neigh   | 0          | 0          | 0          |   0.0 |  0.00
Comm    | 0.004103   | 0.004103   | 0.004103   |   0.0 | 16.89
Output  | 0.00559    | 0.00559    | 0.00559    |   0.0 | 23.01
Modify  | 0.00463    | 0.00463    | 0.00463    |   0.0 | 19.06
Other   |            | 0.006166   |            |       | 25.38

Nlocal:    2 ave 2 max 2 min
Histogram: 1 0 0 0 0 0 0 0 0 0
Nghost:    0 ave 0 max 0 min
Histogram: 1 0 0 0 0 0 0 0 0 0
Neighs:    1 ave 1 max 1 min
Histogram: 1 0 0 0 0 0 0 0 0 0

Total # of neighbors = 1
Ave neighs/atom = 0.5
Ave special neighs/atom = 0
Neighbor list builds = 0
Dangerous builds = 0
  next a
  jump SELF loop
  displace_atoms atom2 move 0 -0.02 0
  run   1000
Neighbor list info ...
  update every 1 steps, delay 10 steps, check yes
  max neighbors/atom: 2000, page size: 100000
  master list distance cutoff = 2.8
  ghost atom cutoff = 2.8
  binsize = 1.4, bins = 29 29 29
  6 neighbor lists, perpetual/occasional/extra = 5 1 0
  (1) pair lj/expand/twopiece, perpetual, skip from (6)
      attributes: half, newton on
      pair build: skip
      stencil: none
      bin: none
  (2) pair soft/shift, perpetual, skip from (6)
      attributes: half, newton on
      pair build: skip
      stencil: none
      bin: none
  (3) pair zero, perpetual, skip from (6)
      attributes: half, newton on
      pair build: skip
      stencil: none
      bin: none
  (4) pair morse, perpetual, skip from (6)
      attributes: half, newton on
      pair build: skip
      stencil: none
      bin: none
  (5) compute pair/local, occasional, copy from (6)
      attributes: half, newton on
      pair build: copy
      stencil: none
      bin: none
  (6) neighbor class addition, perpetual
      attributes: half, newton on
      pair build: half/bin/newton
      stencil: half/bin/3d/newton
      bin: standard
Per MPI rank memory allocation (min/avg/max) = 9.201 | 9.201 | 9.201 Mbytes
Step Temp E_pair E_mol TotEng Press 
   23000            0 -0.00058601986            0 -0.00058601986 -3.6615503e-08 
   23200            0 -0.00058601986            0 -0.00058601986 -3.6615503e-08 
   23400            0 -0.00058601986            0 -0.00058601986 -3.6615503e-08 
   23600            0 -0.00058601986            0 -0.00058601986 -3.6615503e-08 
   23800            0 -0.00058601986            0 -0.00058601986 -3.6615503e-08 
   24000            0 -0.00058601986            0 -0.00058601986 -3.6615503e-08 
Loop time of 0.026774 on 1 procs for 1000 steps with 2 atoms

Performance: 3227011.276 tau/day, 37349.668 timesteps/s
0.0% CPU use with 1 MPI tasks x 1 OpenMP threads

MPI task timing breakdown:
Section |  min time  |  avg time  |  max time  |%varavg| %total
---------------------------------------------------------------
Pair    | 0.002687   | 0.002687   | 0.002687   |   0.0 | 10.04
Bond    | 0.001992   | 0.001992   | 0.001992   |   0.0 |  7.44
Neigh   | 0          | 0          | 0          |   0.0 |  0.00
Comm    | 0.0037     | 0.0037     | 0.0037     |   0.0 | 13.82
Output  | 0.007848   | 0.007848   | 0.007848   |   0.0 | 29.31
Modify  | 0.004562   | 0.004562   | 0.004562   |   0.0 | 17.04
Other   |            | 0.005985   |            |       | 22.35

Nlocal:    2 ave 2 max 2 min
Histogram: 1 0 0 0 0 0 0 0 0 0
Nghost:    0 ave 0 max 0 min
Histogram: 1 0 0 0 0 0 0 0 0 0
Neighs:    1 ave 1 max 1 min
Histogram: 1 0 0 0 0 0 0 0 0 0

Total # of neighbors = 1
Ave neighs/atom = 0.5
Ave special neighs/atom = 0
Neighbor list builds = 0
Dangerous builds = 0
  next a
  jump SELF loop
  displace_atoms atom2 move 0 -0.02 0
  run   1000
Neighbor list info ...
  update every 1 steps, delay 10 steps, check yes
  max neighbors/atom: 2000, page size: 100000
  master list distance cutoff = 2.8
  ghost atom cutoff = 2.8
  binsize = 1.4, bins = 29 29 29
  6 neighbor lists, perpetual/occasional/extra = 5 1 0
  (1) pair lj/expand/twopiece, perpetual, skip from (6)
      attributes: half, newton on
      pair build: skip
      stencil: none
      bin: none
  (2) pair soft/shift, perpetual, skip from (6)
      attributes: half, newton on
      pair build: skip
      stencil: none
      bin: none
  (3) pair zero, perpetual, skip from (6)
      attributes: half, newton on
      pair build: skip
      stencil: none
      bin: none
  (4) pair morse, perpetual, skip from (6)
      attributes: half, newton on
      pair build: skip
      stencil: none
      bin: none
  (5) compute pair/local, occasional, copy from (6)
      attributes: half, newton on
      pair build: copy
      stencil: none
      bin: none
  (6) neighbor class addition, perpetual
      attributes: half, newton on
      pair build: half/bin/newton
      stencil: half/bin/3d/newton
      bin: standard
Per MPI rank memory allocation (min/avg/max) = 9.201 | 9.201 | 9.201 Mbytes
Step Temp E_pair E_mol TotEng Press 
   24000            0 -0.00062360153            0 -0.00062360153 -3.8962936e-08 
   24200            0 -0.00062360153            0 -0.00062360153 -3.8962936e-08 
   24400            0 -0.00062360153            0 -0.00062360153 -3.8962936e-08 
   24600            0 -0.00062360153            0 -0.00062360153 -3.8962936e-08 
   24800            0 -0.00062360153            0 -0.00062360153 -3.8962936e-08 
   25000            0 -0.00062360153            0 -0.00062360153 -3.8962936e-08 
Loop time of 0.019204 on 1 procs for 1000 steps with 2 atoms

Performance: 4499062.693 tau/day, 52072.485 timesteps/s
81.4% CPU use with 1 MPI tasks x 1 OpenMP threads

MPI task timing breakdown:
Section |  min time  |  avg time  |  max time  |%varavg| %total
---------------------------------------------------------------
Pair    | 0.002044   | 0.002044   | 0.002044   |   0.0 | 10.64
Bond    | 0.00145    | 0.00145    | 0.00145    |   0.0 |  7.55
Neigh   | 0          | 0          | 0          |   0.0 |  0.00
Comm    | 0.00262    | 0.00262    | 0.00262    |   0.0 | 13.64
Output  | 0.005204   | 0.005204   | 0.005204   |   0.0 | 27.10
Modify  | 0.003149   | 0.003149   | 0.003149   |   0.0 | 16.40
Other   |            | 0.004737   |            |       | 24.67

Nlocal:    2 ave 2 max 2 min
Histogram: 1 0 0 0 0 0 0 0 0 0
Nghost:    0 ave 0 max 0 min
Histogram: 1 0 0 0 0 0 0 0 0 0
Neighs:    1 ave 1 max 1 min
Histogram: 1 0 0 0 0 0 0 0 0 0

Total # of neighbors = 1
Ave neighs/atom = 0.5
Ave special neighs/atom = 0
Neighbor list builds = 0
Dangerous builds = 0
  next a
  jump SELF loop
  displace_atoms atom2 move 0 -0.02 0
  run   1000
Neighbor list info ...
  update every 1 steps, delay 10 steps, check yes
  max neighbors/atom: 2000, page size: 100000
  master list distance cutoff = 2.8
  ghost atom cutoff = 2.8
  binsize = 1.4, bins = 29 29 29
  6 neighbor lists, perpetual/occasional/extra = 5 1 0
  (1) pair lj/expand/twopiece, perpetual, skip from (6)
      attributes: half, newton on
      pair build: skip
      stencil: none
      bin: none
  (2) pair soft/shift, perpetual, skip from (6)
      attributes: half, newton on
      pair build: skip
      stencil: none
      bin: none
  (3) pair zero, perpetual, skip from (6)
      attributes: half, newton on
      pair build: skip
      stencil: none
      bin: none
  (4) pair morse, perpetual, skip from (6)
      attributes: half, newton on
      pair build: skip
      stencil: none
      bin: none
  (5) compute pair/local, occasional, copy from (6)
      attributes: half, newton on
      pair build: copy
      stencil: none
      bin: none
  (6) neighbor class addition, perpetual
      attributes: half, newton on
      pair build: half/bin/newton
      stencil: half/bin/3d/newton
      bin: standard
Per MPI rank memory allocation (min/avg/max) = 9.201 | 9.201 | 9.201 Mbytes
Step Temp E_pair E_mol TotEng Press 
   25000            0 -0.00066402458            0 -0.00066402458 -4.1487748e-08 
   25200            0 -0.00066402458            0 -0.00066402458 -4.1487748e-08 
   25400            0 -0.00066402458            0 -0.00066402458 -4.1487748e-08 
   25600            0 -0.00066402458            0 -0.00066402458 -4.1487748e-08 
   25800            0 -0.00066402458            0 -0.00066402458 -4.1487748e-08 
   26000            0 -0.00066402458            0 -0.00066402458 -4.1487748e-08 
Loop time of 0.021812 on 1 procs for 1000 steps with 2 atoms

Performance: 3961122.314 tau/day, 45846.323 timesteps/s
0.0% CPU use with 1 MPI tasks x 1 OpenMP threads

MPI task timing breakdown:
Section |  min time  |  avg time  |  max time  |%varavg| %total
---------------------------------------------------------------
Pair    | 0.001982   | 0.001982   | 0.001982   |   0.0 |  9.09
Bond    | 0.001935   | 0.001935   | 0.001935   |   0.0 |  8.87
Neigh   | 0          | 0          | 0          |   0.0 |  0.00
Comm    | 0.003064   | 0.003064   | 0.003064   |   0.0 | 14.05
Output  | 0.006509   | 0.006509   | 0.006509   |   0.0 | 29.84
Modify  | 0.003425   | 0.003425   | 0.003425   |   0.0 | 15.70
Other   |            | 0.004897   |            |       | 22.45

Nlocal:    2 ave 2 max 2 min
Histogram: 1 0 0 0 0 0 0 0 0 0
Nghost:    0 ave 0 max 0 min
Histogram: 1 0 0 0 0 0 0 0 0 0
Neighs:    1 ave 1 max 1 min
Histogram: 1 0 0 0 0 0 0 0 0 0

Total # of neighbors = 1
Ave neighs/atom = 0.5
Ave special neighs/atom = 0
Neighbor list builds = 0
Dangerous builds = 0
  next a
  jump SELF loop
  displace_atoms atom2 move 0 -0.02 0
  run   1000
Neighbor list info ...
  update every 1 steps, delay 10 steps, check yes
  max neighbors/atom: 2000, page size: 100000
  master list distance cutoff = 2.8
  ghost atom cutoff = 2.8
  binsize = 1.4, bins = 29 29 29
  6 neighbor lists, perpetual/occasional/extra = 5 1 0
  (1) pair lj/expand/twopiece, perpetual, skip from (6)
      attributes: half, newton on
      pair build: skip
      stencil: none
      bin: none
  (2) pair soft/shift, perpetual, skip from (6)
      attributes: half, newton on
      pair build: skip
      stencil: none
      bin: none
  (3) pair zero, perpetual, skip from (6)
      attributes: half, newton on
      pair build: skip
      stencil: none
      bin: none
  (4) pair morse, perpetual, skip from (6)
      attributes: half, newton on
      pair build: skip
      stencil: none
      bin: none
  (5) compute pair/local, occasional, copy from (6)
      attributes: half, newton on
      pair build: copy
      stencil: none
      bin: none
  (6) neighbor class addition, perpetual
      attributes: half, newton on
      pair build: half/bin/newton
      stencil: half/bin/3d/newton
      bin: standard
Per MPI rank memory allocation (min/avg/max) = 9.201 | 9.201 | 9.201 Mbytes
Step Temp E_pair E_mol TotEng Press 
   26000            0 -0.00070753708            0 -0.00070753708 -4.4205412e-08 
   26200            0 -0.00070753708            0 -0.00070753708 -4.4205412e-08 
   26400            0 -0.00070753708            0 -0.00070753708 -4.4205412e-08 
   26600            0 -0.00070753708            0 -0.00070753708 -4.4205412e-08 
   26800            0 -0.00070753708            0 -0.00070753708 -4.4205412e-08 
   27000            0 -0.00070753708            0 -0.00070753708 -4.4205412e-08 
Loop time of 0.021158 on 1 procs for 1000 steps with 2 atoms

Performance: 4083561.776 tau/day, 47263.446 timesteps/s
0.0% CPU use with 1 MPI tasks x 1 OpenMP threads

MPI task timing breakdown:
Section |  min time  |  avg time  |  max time  |%varavg| %total
---------------------------------------------------------------
Pair    | 0.002022   | 0.002022   | 0.002022   |   0.0 |  9.56
Bond    | 0.002067   | 0.002067   | 0.002067   |   0.0 |  9.77
Neigh   | 0          | 0          | 0          |   0.0 |  0.00
Comm    | 0.002747   | 0.002747   | 0.002747   |   0.0 | 12.98
[...]
  234000            0 -0.00022242963            0 -0.00022242963 -1.3900305e-08 
  234200            0 -0.00022242963            0 -0.00022242963 -1.3900305e-08 
  234400            0 -0.00022242963            0 -0.00022242963 -1.3900305e-08 
  234600            0 -0.00022242963            0 -0.00022242963 -1.3900305e-08 
  234800            0 -0.00022242963            0 -0.00022242963 -1.3900305e-08 
  235000            0 -0.00022242963            0 -0.00022242963 -1.3900305e-08 
Loop time of 0.032005 on 1 procs for 1000 steps with 2 atoms

Performance: 2699578.187 tau/day, 31245.118 timesteps/s
48.8% CPU use with 1 MPI tasks x 1 OpenMP threads

MPI task timing breakdown:
Section |  min time  |  avg time  |  max time  |%varavg| %total
---------------------------------------------------------------
Pair    | 0.004988   | 0.004988   | 0.004988   |   0.0 | 15.59
Bond    | 0.002138   | 0.002138   | 0.002138   |   0.0 |  6.68
Neigh   | 0          | 0          | 0          |   0.0 |  0.00
Comm    | 0.003122   | 0.003122   | 0.003122   |   0.0 |  9.75
Output  | 0.012697   | 0.012697   | 0.012697   |   0.0 | 39.67
Modify  | 0.003578   | 0.003578   | 0.003578   |   0.0 | 11.18
Other   |            | 0.005482   |            |       | 17.13

Nlocal:    2 ave 2 max 2 min
Histogram: 1 0 0 0 0 0 0 0 0 0
Nghost:    0 ave 0 max 0 min
Histogram: 1 0 0 0 0 0 0 0 0 0
Neighs:    1 ave 1 max 1 min
Histogram: 1 0 0 0 0 0 0 0 0 0

Total # of neighbors = 1
Ave neighs/atom = 0.5
Ave special neighs/atom = 0
Neighbor list builds = 0
Dangerous builds = 0
  next a
  jump SELF loop
  displace_atoms atom2 move 0 -0.02 0
  run   1000
Neighbor list info ...
  update every 1 steps, delay 10 steps, check yes
  max neighbors/atom: 2000, page size: 100000
  master list distance cutoff = 2.8
  ghost atom cutoff = 2.8
  binsize = 1.4, bins = 29 29 29
  6 neighbor lists, perpetual/occasional/extra = 5 1 0
  (1) pair lj/expand/twopiece, perpetual, skip from (6)
      attributes: half, newton on
      pair build: skip
      stencil: none
      bin: none
  (2) pair soft/shift, perpetual, skip from (6)
      attributes: half, newton on
      pair build: skip
      stencil: none
      bin: none
  (3) pair zero, perpetual, skip from (6)
      attributes: half, newton on
      pair build: skip
      stencil: none
      bin: none
  (4) pair morse, perpetual, skip from (6)
      attributes: half, newton on
      pair build: skip
      stencil: none
      bin: none
  (5) compute pair/local, occasional, copy from (6)
      attributes: half, newton on
      pair build: copy
      stencil: none
      bin: none
  (6) neighbor class addition, perpetual
      attributes: half, newton on
      pair build: half/bin/newton
      stencil: half/bin/3d/newton
      bin: standard
Per MPI rank memory allocation (min/avg/max) = 9.201 | 9.201 | 9.201 Mbytes
Step Temp E_pair E_mol TotEng Press 
  235000            0 -0.00021107518            0 -0.00021107518 -1.3190806e-08 
  235200            0 -0.00021107518            0 -0.00021107518 -1.3190806e-08 
  235400            0 -0.00021107518            0 -0.00021107518 -1.3190806e-08 
  235600            0 -0.00021107518            0 -0.00021107518 -1.3190806e-08 
  235800            0 -0.00021107518            0 -0.00021107518 -1.3190806e-08 
  236000            0 -0.00021107518            0 -0.00021107518 -1.3190806e-08 
Loop time of 0.029489 on 1 procs for 1000 steps with 2 atoms

Performance: 2929906.063 tau/day, 33910.950 timesteps/s
0.0% CPU use with 1 MPI tasks x 1 OpenMP threads

MPI task timing breakdown:
Section |  min time  |  avg time  |  max time  |%varavg| %total
---------------------------------------------------------------
Pair    | 0.005228   | 0.005228   | 0.005228   |   0.0 | 17.73
Bond    | 0.003508   | 0.003508   | 0.003508   |   0.0 | 11.90
Neigh   | 0          | 0          | 0          |   0.0 |  0.00
Comm    | 0.003455   | 0.003455   | 0.003455   |   0.0 | 11.72
Output  | 0.007354   | 0.007354   | 0.007354   |   0.0 | 24.94
Modify  | 0.003758   | 0.003758   | 0.003758   |   0.0 | 12.74
Other   |            | 0.006186   |            |       | 20.98

Nlocal:    2 ave 2 max 2 min
Histogram: 1 0 0 0 0 0 0 0 0 0
Nghost:    0 ave 0 max 0 min
Histogram: 1 0 0 0 0 0 0 0 0 0
Neighs:    1 ave 1 max 1 min
Histogram: 1 0 0 0 0 0 0 0 0 0

Total # of neighbors = 1
Ave neighs/atom = 0.5
Ave special neighs/atom = 0
Neighbor list builds = 0
Dangerous builds = 0
  next a
  jump SELF loop
  displace_atoms atom2 move 0 -0.02 0
  run   1000
Neighbor list info ...
  update every 1 steps, delay 10 steps, check yes
  max neighbors/atom: 2000, page size: 100000
  master list distance cutoff = 2.8
  ghost atom cutoff = 2.8
  binsize = 1.4, bins = 29 29 29
  6 neighbor lists, perpetual/occasional/extra = 5 1 0
  (1) pair lj/expand/twopiece, perpetual, skip from (6)
      attributes: half, newton on
      pair build: skip
      stencil: none
      bin: none
  (2) pair soft/shift, perpetual, skip from (6)
      attributes: half, newton on
      pair build: skip
      stencil: none
      bin: none
  (3) pair zero, perpetual, skip from (6)
      attributes: half, newton on
      pair build: skip
      stencil: none
      bin: none
  (4) pair morse, perpetual, skip from (6)
      attributes: half, newton on
      pair build: skip
      stencil: none
      bin: none
  (5) compute pair/local, occasional, copy from (6)
      attributes: half, newton on
      pair build: copy
      stencil: none
      bin: none
  (6) neighbor class addition, perpetual
      attributes: half, newton on
      pair build: half/bin/newton
      stencil: half/bin/3d/newton
      bin: standard
Per MPI rank memory allocation (min/avg/max) = 9.201 | 9.201 | 9.201 Mbytes
Step Temp E_pair E_mol TotEng Press 
  236000            0 -0.00020039117            0 -0.00020039117 -1.2523193e-08 
  236200            0 -0.00020039117            0 -0.00020039117 -1.2523193e-08 
  236400            0 -0.00020039117            0 -0.00020039117 -1.2523193e-08 
  236600            0 -0.00020039117            0 -0.00020039117 -1.2523193e-08 
  236800            0 -0.00020039117            0 -0.00020039117 -1.2523193e-08 
  237000            0 -0.00020039117            0 -0.00020039117 -1.2523193e-08 
Loop time of 0.030287 on 1 procs for 1000 steps with 2 atoms

Performance: 2852709.083 tau/day, 33017.466 timesteps/s
0.0% CPU use with 1 MPI tasks x 1 OpenMP threads

MPI task timing breakdown:
Section |  min time  |  avg time  |  max time  |%varavg| %total
---------------------------------------------------------------
Pair    | 0.002593   | 0.002593   | 0.002593   |   0.0 |  8.56
Bond    | 0.001627   | 0.001627   | 0.001627   |   0.0 |  5.37
Neigh   | 0          | 0          | 0          |   0.0 |  0.00
Comm    | 0.00378    | 0.00378    | 0.00378    |   0.0 | 12.48
Output  | 0.004968   | 0.004968   | 0.004968   |   0.0 | 16.40
Modify  | 0.003166   | 0.003166   | 0.003166   |   0.0 | 10.45
Other   |            | 0.01415    |            |       | 46.73

Nlocal:    2 ave 2 max 2 min
Histogram: 1 0 0 0 0 0 0 0 0 0
Nghost:    0 ave 0 max 0 min
Histogram: 1 0 0 0 0 0 0 0 0 0
Neighs:    1 ave 1 max 1 min
Histogram: 1 0 0 0 0 0 0 0 0 0

Total # of neighbors = 1
Ave neighs/atom = 0.5
Ave special neighs/atom = 0
Neighbor list builds = 0
Dangerous builds = 0
  next a
  jump SELF loop
  displace_atoms atom2 move 0 -0.02 0
  run   1000
Neighbor list info ...
  update every 1 steps, delay 10 steps, check yes
  max neighbors/atom: 2000, page size: 100000
  master list distance cutoff = 2.8
  ghost atom cutoff = 2.8
  binsize = 1.4, bins = 29 29 29
  6 neighbor lists, perpetual/occasional/extra = 5 1 0
  (1) pair lj/expand/twopiece, perpetual, skip from (6)
      attributes: half, newton on
      pair build: skip
      stencil: none
      bin: none
  (2) pair soft/shift, perpetual, skip from (6)
      attributes: half, newton on
      pair build: skip
      stencil: none
      bin: none
  (3) pair zero, perpetual, skip from (6)
      attributes: half, newton on
      pair build: skip
      stencil: none
      bin: none
  (4) pair morse, perpetual, skip from (6)
      attributes: half, newton on
      pair build: skip
      stencil: none
      bin: none
  (5) compute pair/local, occasional, copy from (6)
      attributes: half, newton on
      pair build: copy
      stencil: none
      bin: none
  (6) neighbor class addition, perpetual
      attributes: half, newton on
      pair build: half/bin/newton
      stencil: half/bin/3d/newton
      bin: standard
Per MPI rank memory allocation (min/avg/max) = 9.201 | 9.201 | 9.201 Mbytes
Step Temp E_pair E_mol TotEng Press 
  237000            0 -0.00019033276            0 -0.00019033276 -1.1894665e-08 
  237200            0 -0.00019033276            0 -0.00019033276 -1.1894665e-08 
  237400            0 -0.00019033276            0 -0.00019033276 -1.1894665e-08 
  237600            0 -0.00019033276            0 -0.00019033276 -1.1894665e-08 
  237800            0 -0.00019033276            0 -0.00019033276 -1.1894665e-08 
  238000            0 -0.00019033276            0 -0.00019033276 -1.1894665e-08 
Loop time of 0.017566 on 1 procs for 1000 steps with 2 atoms

Performance: 4918592.737 tau/day, 56928.157 timesteps/s
89.0% CPU use with 1 MPI tasks x 1 OpenMP threads

MPI task timing breakdown:
Section |  min time  |  avg time  |  max time  |%varavg| %total
---------------------------------------------------------------
Pair    | 0.00207    | 0.00207    | 0.00207    |   0.0 | 11.78
Bond    | 0.001482   | 0.001482   | 0.001482   |   0.0 |  8.44
Neigh   | 0          | 0          | 0          |   0.0 |  0.00
Comm    | 0.003126   | 0.003126   | 0.003126   |   0.0 | 17.80
Output  | 0.003384   | 0.003384   | 0.003384   |   0.0 | 19.26
Modify  | 0.003004   | 0.003004   | 0.003004   |   0.0 | 17.10
Other   |            | 0.0045     |            |       | 25.62

Nlocal:    2 ave 2 max 2 min
Histogram: 1 0 0 0 0 0 0 0 0 0
Nghost:    0 ave 0 max 0 min
Histogram: 1 0 0 0 0 0 0 0 0 0
Neighs:    1 ave 1 max 1 min
Histogram: 1 0 0 0 0 0 0 0 0 0

Total # of neighbors = 1
Ave neighs/atom = 0.5
Ave special neighs/atom = 0
Neighbor list builds = 0
Dangerous builds = 0
  next a
  jump SELF loop
  displace_atoms atom2 move 0 -0.02 0
  run   1000
Neighbor list info ...
  update every 1 steps, delay 10 steps, check yes
  max neighbors/atom: 2000, page size: 100000
  master list distance cutoff = 2.8
  ghost atom cutoff = 2.8
  binsize = 1.4, bins = 29 29 29
  6 neighbor lists, perpetual/occasional/extra = 5 1 0
  (1) pair lj/expand/twopiece, perpetual, skip from (6)
      attributes: half, newton on
      pair build: skip
      stencil: none
      bin: none
  (2) pair soft/shift, perpetual, skip from (6)
      attributes: half, newton on
      pair build: skip
      stencil: none
      bin: none
  (3) pair zero, perpetual, skip from (6)
      attributes: half, newton on
      pair build: skip
      stencil: none
      bin: none
  (4) pair morse, perpetual, skip from (6)
      attributes: half, newton on
      pair build: skip
      stencil: none
      bin: none
  (5) compute pair/local, occasional, copy from (6)
      attributes: half, newton on
      pair build: copy
      stencil: none
      bin: none
  (6) neighbor class addition, perpetual
      attributes: half, newton on
      pair build: half/bin/newton
      stencil: half/bin/3d/newton
      bin: standard
Per MPI rank memory allocation (min/avg/max) = 9.201 | 9.201 | 9.201 Mbytes
Step Temp E_pair E_mol TotEng Press 
  238000            0 -0.00018085842            0 -0.00018085842 -1.1302629e-08 
  238200            0 -0.00018085842            0 -0.00018085842 -1.1302629e-08 
  238400            0 -0.00018085842            0 -0.00018085842 -1.1302629e-08 
  238600            0 -0.00018085842            0 -0.00018085842 -1.1302629e-08 
  238800            0 -0.00018085842            0 -0.00018085842 -1.1302629e-08 
  239000            0 -0.00018085842            0 -0.00018085842 -1.1302629e-08 
Loop time of 0.035687 on 1 procs for 1000 steps with 2 atoms

Performance: 2421049.680 tau/day, 28021.408 timesteps/s
0.0% CPU use with 1 MPI tasks x 1 OpenMP threads

MPI task timing breakdown:
Section |  min time  |  avg time  |  max time  |%varavg| %total
---------------------------------------------------------------
Pair    | 0.002566   | 0.002566   | 0.002566   |   0.0 |  7.19
Bond    | 0.001494   | 0.001494   | 0.001494   |   0.0 |  4.19
Neigh   | 0          | 0          | 0          |   0.0 |  0.00
Comm    | 0.003021   | 0.003021   | 0.003021   |   0.0 |  8.47
Output  | 0.019774   | 0.019774   | 0.019774   |   0.0 | 55.41
Modify  | 0.003342   | 0.003342   | 0.003342   |   0.0 |  9.36
Other   |            | 0.00549    |            |       | 15.38

Nlocal:    2 ave 2 max 2 min
Histogram: 1 0 0 0 0 0 0 0 0 0
Nghost:    0 ave 0 max 0 min
Histogram: 1 0 0 0 0 0 0 0 0 0
Neighs:    1 ave 1 max 1 min
Histogram: 1 0 0 0 0 0 0 0 0 0

Total # of neighbors = 1
Ave neighs/atom = 0.5
Ave special neighs/atom = 0
Neighbor list builds = 0
Dangerous builds = 0
  next a
  jump SELF loop
  displace_atoms atom2 move 0 -0.02 0
  run   1000
Neighbor list info ...
  update every 1 steps, delay 10 steps, check yes
  max neighbors/atom: 2000, page size: 100000
  master list distance cutoff = 2.8
  ghost atom cutoff = 2.8
  binsize = 1.4, bins = 29 29 29
  6 neighbor lists, perpetual/occasional/extra = 5 1 0
  (1) pair lj/expand/twopiece, perpetual, skip from (6)
      attributes: half, newton on
      pair build: skip
      stencil: none
      bin: none
  (2) pair soft/shift, perpetual, skip from (6)
      attributes: half, newton on
      pair build: skip
      stencil: none
      bin: none
  (3) pair zero, perpetual, skip from (6)
      attributes: half, newton on
      pair build: skip
      stencil: none
      bin: none
  (4) pair morse, perpetual, skip from (6)
      attributes: half, newton on
      pair build: skip
      stencil: none
      bin: none
  (5) compute pair/local, occasional, copy from (6)
      attributes: half, newton on
      pair build: copy
      stencil: none
      bin: none
  (6) neighbor class addition, perpetual
      attributes: half, newton on
      pair build: half/bin/newton
      stencil: half/bin/3d/newton
      bin: standard
Per MPI rank memory allocation (min/avg/max) = 9.201 | 9.201 | 9.201 Mbytes
Step Temp E_pair E_mol TotEng Press 
  239000            0 -0.00017192971            0 -0.00017192971 -1.0744683e-08 
  239200            0 -0.00017192971            0 -0.00017192971 -1.0744683e-08 
  239400            0 -0.00017192971            0 -0.00017192971 -1.0744683e-08 
  239600            0 -0.00017192971            0 -0.00017192971 -1.0744683e-08 
  239800            0 -0.00017192971            0 -0.00017192971 -1.0744683e-08 
  240000            0 -0.00017192971            0 -0.00017192971 -1.0744683e-08 
Loop time of 0.023833 on 1 procs for 1000 steps with 2 atoms

Performance: 3625225.530 tau/day, 41958.629 timesteps/s
0.0% CPU use with 1 MPI tasks x 1 OpenMP threads

MPI task timing breakdown:
Section |  min time  |  avg time  |  max time  |%varavg| %total
---------------------------------------------------------------
Pair    | 0.002523   | 0.002523   | 0.002523   |   0.0 | 10.59
Bond    | 0.002815   | 0.002815   | 0.002815   |   0.0 | 11.81
Neigh   | 0          | 0          | 0          |   0.0 |  0.00
Comm    | 0.003326   | 0.003326   | 0.003326   |   0.0 | 13.96
Output  | 0.005923   | 0.005923   | 0.005923   |   0.0 | 24.85
Modify  | 0.003342   | 0.003342   | 0.003342   |   0.0 | 14.02
Other   |            | 0.005904   |            |       | 24.77

Nlocal:    2 ave 2 max 2 min
Histogram: 1 0 0 0 0 0 0 0 0 0
Nghost:    0 ave 0 max 0 min
Histogram: 1 0 0 0 0 0 0 0 0 0
Neighs:    1 ave 1 max 1 min
Histogram: 1 0 0 0 0 0 0 0 0 0

Total # of neighbors = 1
Ave neighs/atom = 0.5
Ave special neighs/atom = 0
Neighbor list builds = 0
Dangerous builds = 0
  next a
  jump SELF loop
  displace_atoms atom2 move 0 -0.02 0
  run   1000
Neighbor list info ...
  update every 1 steps, delay 10 steps, check yes
  max neighbors/atom: 2000, page size: 100000
  master list distance cutoff = 2.8
  ghost atom cutoff = 2.8
  binsize = 1.4, bins = 29 29 29
  6 neighbor lists, perpetual/occasional/extra = 5 1 0
  (1) pair lj/expand/twopiece, perpetual, skip from (6)
      attributes: half, newton on
      pair build: skip
      stencil: none
      bin: none
  (2) pair soft/shift, perpetual, skip from (6)
      attributes: half, newton on
      pair build: skip
      stencil: none
      bin: none
  (3) pair zero, perpetual, skip from (6)
      attributes: half, newton on
      pair build: skip
      stencil: none
      bin: none
  (4) pair morse, perpetual, skip from (6)
      attributes: half, newton on
      pair build: skip
      stencil: none
      bin: none
  (5) compute pair/local, occasional, copy from (6)
      attributes: half, newton on
      pair build: copy
      stencil: none
      bin: none
  (6) neighbor class addition, perpetual
      attributes: half, newton on
      pair build: half/bin/newton
      stencil: half/bin/3d/newton
      bin: standard
Per MPI rank memory allocation (min/avg/max) = 9.201 | 9.201 | 9.201 Mbytes
Step Temp E_pair E_mol TotEng Press 
  240000            0 -0.00016351103            0 -0.00016351103 -1.0218604e-08 
  240200            0 -0.00016351103            0 -0.00016351103 -1.0218604e-08 
  240400            0 -0.00016351103            0 -0.00016351103 -1.0218604e-08 
  240600            0 -0.00016351103            0 -0.00016351103 -1.0218604e-08 
  240800            0 -0.00016351103            0 -0.00016351103 -1.0218604e-08 
  241000            0 -0.00016351103            0 -0.00016351103 -1.0218604e-08 
Loop time of 0.036968 on 1 procs for 1000 steps with 2 atoms

Performance: 2337156.460 tau/day, 27050.422 timesteps/s
0.0% CPU use with 1 MPI tasks x 1 OpenMP threads

MPI task timing breakdown:
Section |  min time  |  avg time  |  max time  |%varavg| %total
---------------------------------------------------------------
Pair    | 0.002499   | 0.002499   | 0.002499   |   0.0 |  6.76
Bond    | 0.002133   | 0.002133   | 0.002133   |   0.0 |  5.77
Neigh   | 0          | 0          | 0          |   0.0 |  0.00
Comm    | 0.004204   | 0.004204   | 0.004204   |   0.0 | 11.37
Output  | 0.015107   | 0.015107   | 0.015107   |   0.0 | 40.87
Modify  | 0.005159   | 0.005159   | 0.005159   |   0.0 | 13.96
Other   |            | 0.007866   |            |       | 21.28

Nlocal:    2 ave 2 max 2 min
Histogram: 1 0 0 0 0 0 0 0 0 0
Nghost:    0 ave 0 max 0 min
Histogram: 1 0 0 0 0 0 0 0 0 0
Neighs:    1 ave 1 max 1 min
Histogram: 1 0 0 0 0 0 0 0 0 0

Total # of neighbors = 1
Ave neighs/atom = 0.5
Ave special neighs/atom = 0
Neighbor list builds = 0
Dangerous builds = 0
  next a
  jump SELF loop


# ----------------- Run Section -----------------

# The lines above define the system you want to simulate.
# What you do next is up to you.
# Typically a user would minimize and equilibrate
# the system using commands similar to the following:
#  ----   examples   ----
#
#  -- minimize --
# minimize 1.0e-5 1.0e-7 1000 10000
# (Note: Some fixes, for example "shake", interfere with the minimize command,
#        You can use the "unfix" command to disable them before minimization.)
#  -- declare time step for normal MD --
# timestep 1.0
#  -- run at constant pressure (Nose-Hoover)--
# fix   fxnpt all npt temp 300.0 300.0 100.0 iso 1.0 1.0 1000.0 drag 1.0
#  -- ALTERNATELY, run at constant volume (Nose-Hoover) --
# fix   fxnvt all nvt temp 300.0 300.0 500.0 tchain 1
#  -- ALTERNATELY, run at constant volume using Langevin dynamics. --
#  -- (This is good for sparse CG polymers in implicit solvent.)   --
# fix fxLAN all langevin 300.0 300.0 5000 48279
# fix fxNVE all nve  #(<--needed by fix langevin)
#  -- Now, finally run the simulation --
# run   50000
#  ---- (end of examples) ----

Total wall time: 0:00:09
