LAMMPS (7 Aug 2019)
OMP_NUM_THREADS environment is not set. Defaulting to 1 thread. (src/comm.cpp:93)
  using 1 OpenMP thread(s) per MPI task


# ----------------- Init Section -----------------

include "system.in.init"
        units lj
        atom_style angle
        pair_style hybrid lj/expand/twopiece 2.5 soft/shift 0.3 zero 1 morse 2.5
        bond_style hybrid harmonic
        angle_style hybrid harmonic
        special_bonds lj 0.0 0.0 0.0


# ----------------- Atom Definition Section -----------------

read_data "system.data"
  orthogonal box = (-20 -20 -20) to (20 20 20)
  1 by 1 by 1 MPI processor grid
  reading atoms ...
  2 atoms
  0 = max # of 1-2 neighbors
  0 = max # of 1-3 neighbors
  0 = max # of 1-4 neighbors
  1 = max # of special neighbors
  special bonds CPU = 1.81198e-05 secs
  read_data CPU = 0.000324011 secs

# ----------------- Settings Section -----------------

include "system.in.settings"
       pair_coeff 2 2 lj/expand/twopiece 0.5 1 0.5 0.
        pair_coeff 3 3 lj/expand/twopiece 1.0 1 0.5 0.
        pair_coeff 4 4 lj/expand/twopiece 1.0 1 0.5 0.
        pair_coeff 3 4 lj/expand/twopiece 1.0 1 0.5 0.
        pair_coeff 2 3 lj/expand/twopiece 0.5 1 0.5 0.
        pair_coeff 2 4 lj/expand/twopiece 0.5 1 0.5 0.

        pair_coeff 5 5 soft/shift 1.5 0.2
pair_coeff 2 5 zero
pair_coeff 1 5 zero
pair_coeff 3 5 zero
pair_coeff 4 5 zero

        pair_coeff 8 8 lj/expand/twopiece 0.5 1 0.5 0.
pair_coeff 5 8 lj/expand/twopiece 0.5 1 0.5 0.
pair_coeff 2 8 zero
pair_coeff 1 8 morse 100 4 0.5
pair_coeff 3 8 zero
pair_coeff 4 8 zero
pair_coeff 6 8 zero
pair_coeff 7 8 zero

        pair_coeff 6 6 soft/shift 1.5 0.2
pair_coeff 2 6 zero
pair_coeff 1 6 zero
pair_coeff 3 6 zero
pair_coeff 4 6 zero
        pair_coeff 6 7 soft/shift 1.5 0.2

        pair_coeff 7 7 soft/shift 1.5 0.2
pair_coeff 2 7 zero
pair_coeff 1 7 zero
pair_coeff 3 7 zero
pair_coeff 4 7 zero

        pair_coeff 1 1 lj/expand/twopiece 0.5 1 0.8 0.
        pair_coeff 1 2 lj/expand/twopiece 0.5 1 0.8 0.
        pair_coeff 1 3 lj/expand/twopiece 0.5 1 0.8 0.
        pair_coeff 1 4 lj/expand/twopiece 0.5 1 0.8 0.


        bond_coeff 1 harmonic 1000 0.4
        bond_coeff 2 harmonic 1000 0.4
        bond_coeff 3 harmonic 1000 0.15

        angle_coeff 1 harmonic 20 180
        angle_coeff 2 harmonic 20 180
        angle_coeff 3 harmonic 20 180
        angle_coeff 4 harmonic 20 180


# ----------------- Run Section -----------------

include "system.in.run"
  dump dxyz all atom 1000 poly.lammpstrj
  group atom1 id 1
1 atoms in group atom1
  group atom2 id 2
1 atoms in group atom2
  compute pair_data all pair/local dist eng

  fix ffreeze all setforce 0 0 0
  dump 1 all local 10 pair_energy.data index c_pair_data[1] c_pair_data[2]

  thermo 200
  timestep 0.001
  run   1000
Neighbor list info ...
  update every 1 steps, delay 10 steps, check yes
  max neighbors/atom: 2000, page size: 100000
  master list distance cutoff = 2.8
  ghost atom cutoff = 2.8
  binsize = 1.4, bins = 29 29 29
  6 neighbor lists, perpetual/occasional/extra = 5 1 0
  (1) pair lj/expand/twopiece, perpetual, skip from (6)
      attributes: half, newton on
      pair build: skip
      stencil: none
      bin: none
  (2) pair soft/shift, perpetual, skip from (6)
      attributes: half, newton on
      pair build: skip
      stencil: none
      bin: none
  (3) pair zero, perpetual, skip from (6)
      attributes: half, newton on
      pair build: skip
      stencil: none
      bin: none
  (4) pair morse, perpetual, skip from (6)
      attributes: half, newton on
      pair build: skip
      stencil: none
      bin: none
  (5) compute pair/local, occasional, copy from (6)
      attributes: half, newton on
      pair build: copy
      stencil: none
      bin: none
  (6) neighbor class addition, perpetual
      attributes: half, newton on
      pair build: half/bin/newton
      stencil: half/bin/3d/newton
      bin: standard
Per MPI rank memory allocation (min/avg/max) = 8.333 | 8.333 | 8.333 Mbytes
Step Temp E_pair E_mol TotEng Press 
       0            0 -0.00016351103            0 -0.00016351103 -1.0218604e-08 
     200            0 -0.00016351103            0 -0.00016351103 -1.0218604e-08 
     400            0 -0.00016351103            0 -0.00016351103 -1.0218604e-08 
     600            0 -0.00016351103            0 -0.00016351103 -1.0218604e-08 
     800            0 -0.00016351103            0 -0.00016351103 -1.0218604e-08 
    1000            0 -0.00016351103            0 -0.00016351103 -1.0218604e-08 
Loop time of 0.0038271 on 1 procs for 1000 steps with 2 atoms

Performance: 22575870.022 tau/day, 261294.792 timesteps/s
0.0% CPU use with 1 MPI tasks x 1 OpenMP threads

MPI task timing breakdown:
Section |  min time  |  avg time  |  max time  |%varavg| %total
---------------------------------------------------------------
Pair    | 0.00049353 | 0.00049353 | 0.00049353 |   0.0 | 12.90
Bond    | 0.00028706 | 0.00028706 | 0.00028706 |   0.0 |  7.50
Neigh   | 0          | 0          | 0          |   0.0 |  0.00
Comm    | 0.00052142 | 0.00052142 | 0.00052142 |   0.0 | 13.62
Output  | 0.0011661  | 0.0011661  | 0.0011661  |   0.0 | 30.47
Modify  | 0.0005219  | 0.0005219  | 0.0005219  |   0.0 | 13.64
Other   |            | 0.0008371  |            |       | 21.87

Nlocal:    2 ave 2 max 2 min
Histogram: 1 0 0 0 0 0 0 0 0 0
Nghost:    0 ave 0 max 0 min
Histogram: 1 0 0 0 0 0 0 0 0 0
Neighs:    1 ave 1 max 1 min
Histogram: 1 0 0 0 0 0 0 0 0 0

Total # of neighbors = 1
Ave neighs/atom = 0.5
Ave special neighs/atom = 0
Neighbor list builds = 0
Dangerous builds = 0
  variable a loop 240
  label loop
  displace_atoms atom2 move 0 -0.02 0
  run   1000
Neighbor list info ...
  update every 1 steps, delay 10 steps, check yes
  max neighbors/atom: 2000, page size: 100000
  master list distance cutoff = 2.8
  ghost atom cutoff = 2.8
  binsize = 1.4, bins = 29 29 29
  6 neighbor lists, perpetual/occasional/extra = 5 1 0
  (1) pair lj/expand/twopiece, perpetual, skip from (6)
      attributes: half, newton on
      pair build: skip
      stencil: none
      bin: none
  (2) pair soft/shift, perpetual, skip from (6)
      attributes: half, newton on
      pair build: skip
      stencil: none
      bin: none
  (3) pair zero, perpetual, skip from (6)
      attributes: half, newton on
      pair build: skip
      stencil: none
      bin: none
  (4) pair morse, perpetual, skip from (6)
      attributes: half, newton on
      pair build: skip
      stencil: none
      bin: none
  (5) compute pair/local, occasional, copy from (6)
      attributes: half, newton on
      pair build: copy
      stencil: none
      bin: none
  (6) neighbor class addition, perpetual
      attributes: half, newton on
      pair build: half/bin/newton
      stencil: half/bin/3d/newton
      bin: standard
Per MPI rank memory allocation (min/avg/max) = 9.201 | 9.201 | 9.201 Mbytes
Step Temp E_pair E_mol TotEng Press 
    1000            0 -0.00017192971            0 -0.00017192971 -1.0744683e-08 
    1200            0 -0.00017192971            0 -0.00017192971 -1.0744683e-08 
    1400            0 -0.00017192971            0 -0.00017192971 -1.0744683e-08 
    1600            0 -0.00017192971            0 -0.00017192971 -1.0744683e-08 
    1800            0 -0.00017192971            0 -0.00017192971 -1.0744683e-08 
    2000            0 -0.00017192971            0 -0.00017192971 -1.0744683e-08 
Loop time of 0.00384593 on 1 procs for 1000 steps with 2 atoms

Performance: 22465306.900 tau/day, 260015.126 timesteps/s
0.0% CPU use with 1 MPI tasks x 1 OpenMP threads

MPI task timing breakdown:
Section |  min time  |  avg time  |  max time  |%varavg| %total
---------------------------------------------------------------
Pair    | 0.00047708 | 0.00047708 | 0.00047708 |   0.0 | 12.40
Bond    | 0.00030661 | 0.00030661 | 0.00030661 |   0.0 |  7.97
Neigh   | 0          | 0          | 0          |   0.0 |  0.00
Comm    | 0.00052977 | 0.00052977 | 0.00052977 |   0.0 | 13.77
Output  | 0.0011694  | 0.0011694  | 0.0011694  |   0.0 | 30.41
Modify  | 0.00052404 | 0.00052404 | 0.00052404 |   0.0 | 13.63
Other   |            | 0.000839   |            |       | 21.82

Nlocal:    2 ave 2 max 2 min
Histogram: 1 0 0 0 0 0 0 0 0 0
Nghost:    0 ave 0 max 0 min
Histogram: 1 0 0 0 0 0 0 0 0 0
Neighs:    1 ave 1 max 1 min
Histogram: 1 0 0 0 0 0 0 0 0 0

Total # of neighbors = 1
Ave neighs/atom = 0.5
Ave special neighs/atom = 0
Neighbor list builds = 0
Dangerous builds = 0
  next a
  jump SELF loop
  displace_atoms atom2 move 0 -0.02 0
  run   1000
Neighbor list info ...
  update every 1 steps, delay 10 steps, check yes
  max neighbors/atom: 2000, page size: 100000
  master list distance cutoff = 2.8
  ghost atom cutoff = 2.8
  binsize = 1.4, bins = 29 29 29
  6 neighbor lists, perpetual/occasional/extra = 5 1 0
  (1) pair lj/expand/twopiece, perpetual, skip from (6)
      attributes: half, newton on
      pair build: skip
      stencil: none
      bin: none
  (2) pair soft/shift, perpetual, skip from (6)
      attributes: half, newton on
      pair build: skip
      stencil: none
      bin: none
  (3) pair zero, perpetual, skip from (6)
      attributes: half, newton on
      pair build: skip
      stencil: none
      bin: none
  (4) pair morse, perpetual, skip from (6)
      attributes: half, newton on
      pair build: skip
      stencil: none
      bin: none
  (5) compute pair/local, occasional, copy from (6)
      attributes: half, newton on
      pair build: copy
      stencil: none
      bin: none
  (6) neighbor class addition, perpetual
      attributes: half, newton on
      pair build: half/bin/newton
      stencil: half/bin/3d/newton
      bin: standard
Per MPI rank memory allocation (min/avg/max) = 9.201 | 9.201 | 9.201 Mbytes
Step Temp E_pair E_mol TotEng Press 
    2000            0 -0.00018085842            0 -0.00018085842 -1.1302629e-08 
    2200            0 -0.00018085842            0 -0.00018085842 -1.1302629e-08 
    2400            0 -0.00018085842            0 -0.00018085842 -1.1302629e-08 
    2600            0 -0.00018085842            0 -0.00018085842 -1.1302629e-08 
    2800            0 -0.00018085842            0 -0.00018085842 -1.1302629e-08 
    3000            0 -0.00018085842            0 -0.00018085842 -1.1302629e-08 
Loop time of 0.00393105 on 1 procs for 1000 steps with 2 atoms

Performance: 21978885.590 tau/day, 254385.250 timesteps/s
0.0% CPU use with 1 MPI tasks x 1 OpenMP threads

MPI task timing breakdown:
Section |  min time  |  avg time  |  max time  |%varavg| %total
---------------------------------------------------------------
Pair    | 0.00048113 | 0.00048113 | 0.00048113 |   0.0 | 12.24
Bond    | 0.00030351 | 0.00030351 | 0.00030351 |   0.0 |  7.72
Neigh   | 0          | 0          | 0          |   0.0 |  0.00
Comm    | 0.0005281  | 0.0005281  | 0.0005281  |   0.0 | 13.43
Output  | 0.0012598  | 0.0012598  | 0.0012598  |   0.0 | 32.05
Modify  | 0.00051808 | 0.00051808 | 0.00051808 |   0.0 | 13.18
Other   |            | 0.0008404  |            |       | 21.38

Nlocal:    2 ave 2 max 2 min
Histogram: 1 0 0 0 0 0 0 0 0 0
Nghost:    0 ave 0 max 0 min
Histogram: 1 0 0 0 0 0 0 0 0 0
Neighs:    1 ave 1 max 1 min
Histogram: 1 0 0 0 0 0 0 0 0 0

Total # of neighbors = 1
Ave neighs/atom = 0.5
Ave special neighs/atom = 0
Neighbor list builds = 0
Dangerous builds = 0
  next a
  jump SELF loop
  displace_atoms atom2 move 0 -0.02 0
  run   1000
Neighbor list info ...
  update every 1 steps, delay 10 steps, check yes
  max neighbors/atom: 2000, page size: 100000
  master list distance cutoff = 2.8
  ghost atom cutoff = 2.8
  binsize = 1.4, bins = 29 29 29
  6 neighbor lists, perpetual/occasional/extra = 5 1 0
  (1) pair lj/expand/twopiece, perpetual, skip from (6)
      attributes: half, newton on
      pair build: skip
      stencil: none
      bin: none
  (2) pair soft/shift, perpetual, skip from (6)
      attributes: half, newton on
      pair build: skip
      stencil: none
      bin: none
  (3) pair zero, perpetual, skip from (6)
      attributes: half, newton on
      pair build: skip
      stencil: none
      bin: none
  (4) pair morse, perpetual, skip from (6)
      attributes: half, newton on
      pair build: skip
      stencil: none
      bin: none
  (5) compute pair/local, occasional, copy from (6)
      attributes: half, newton on
      pair build: copy
      stencil: none
      bin: none
  (6) neighbor class addition, perpetual
      attributes: half, newton on
      pair build: half/bin/newton
      stencil: half/bin/3d/newton
      bin: standard
Per MPI rank memory allocation (min/avg/max) = 9.201 | 9.201 | 9.201 Mbytes
Step Temp E_pair E_mol TotEng Press 
    3000            0 -0.00019033276            0 -0.00019033276 -1.1894665e-08 
    3200            0 -0.00019033276            0 -0.00019033276 -1.1894665e-08 
    3400            0 -0.00019033276            0 -0.00019033276 -1.1894665e-08 
    3600            0 -0.00019033276            0 -0.00019033276 -1.1894665e-08 
    3800            0 -0.00019033276            0 -0.00019033276 -1.1894665e-08 
    4000            0 -0.00019033276            0 -0.00019033276 -1.1894665e-08 
Loop time of 0.00384402 on 1 procs for 1000 steps with 2 atoms

Performance: 22476453.861 tau/day, 260144.142 timesteps/s
0.0% CPU use with 1 MPI tasks x 1 OpenMP threads

MPI task timing breakdown:
Section |  min time  |  avg time  |  max time  |%varavg| %total
---------------------------------------------------------------
Pair    | 0.00048208 | 0.00048208 | 0.00048208 |   0.0 | 12.54
Bond    | 0.00028348 | 0.00028348 | 0.00028348 |   0.0 |  7.37
Neigh   | 0          | 0          | 0          |   0.0 |  0.00
Comm    | 0.0005362  | 0.0005362  | 0.0005362  |   0.0 | 13.95
Output  | 0.0011947  | 0.0011947  | 0.0011947  |   0.0 | 31.08
Modify  | 0.00052786 | 0.00052786 | 0.00052786 |   0.0 | 13.73
Other   |            | 0.0008197  |            |       | 21.32

Nlocal:    2 ave 2 max 2 min
Histogram: 1 0 0 0 0 0 0 0 0 0
Nghost:    0 ave 0 max 0 min
Histogram: 1 0 0 0 0 0 0 0 0 0
Neighs:    1 ave 1 max 1 min
Histogram: 1 0 0 0 0 0 0 0 0 0

Total # of neighbors = 1
Ave neighs/atom = 0.5
Ave special neighs/atom = 0
Neighbor list builds = 0
Dangerous builds = 0
  next a
  jump SELF loop
  displace_atoms atom2 move 0 -0.02 0
  run   1000
Neighbor list info ...
  update every 1 steps, delay 10 steps, check yes
  max neighbors/atom: 2000, page size: 100000
  master list distance cutoff = 2.8
  ghost atom cutoff = 2.8
  binsize = 1.4, bins = 29 29 29
  6 neighbor lists, perpetual/occasional/extra = 5 1 0
  (1) pair lj/expand/twopiece, perpetual, skip from (6)
      attributes: half, newton on
      pair build: skip
      stencil: none
      bin: none
  (2) pair soft/shift, perpetual, skip from (6)
      attributes: half, newton on
      pair build: skip
      stencil: none
      bin: none
  (3) pair zero, perpetual, skip from (6)
      attributes: half, newton on
      pair build: skip
      stencil: none
      bin: none
  (4) pair morse, perpetual, skip from (6)
      attributes: half, newton on
      pair build: skip
      stencil: none
      bin: none
  (5) compute pair/local, occasional, copy from (6)
      attributes: half, newton on
      pair build: copy
      stencil: none
      bin: none
  (6) neighbor class addition, perpetual
      attributes: half, newton on
      pair build: half/bin/newton
      stencil: half/bin/3d/newton
      bin: standard
Per MPI rank memory allocation (min/avg/max) = 9.201 | 9.201 | 9.201 Mbytes
Step Temp E_pair E_mol TotEng Press 
    4000            0 -0.00020039117            0 -0.00020039117 -1.2523193e-08 
    4200            0 -0.00020039117            0 -0.00020039117 -1.2523193e-08 
    4400            0 -0.00020039117            0 -0.00020039117 -1.2523193e-08 
    4600            0 -0.00020039117            0 -0.00020039117 -1.2523193e-08 
    4800            0 -0.00020039117            0 -0.00020039117 -1.2523193e-08 
    5000            0 -0.00020039117            0 -0.00020039117 -1.2523193e-08 
Loop time of 0.00389099 on 1 procs for 1000 steps with 2 atoms

Performance: 22205138.824 tau/day, 257003.922 timesteps/s
0.0% CPU use with 1 MPI tasks x 1 OpenMP threads

MPI task timing breakdown:
Section |  min time  |  avg time  |  max time  |%varavg| %total
---------------------------------------------------------------
Pair    | 0.00047684 | 0.00047684 | 0.00047684 |   0.0 | 12.25
Bond    | 0.00029206 | 0.00029206 | 0.00029206 |   0.0 |  7.51
Neigh   | 0          | 0          | 0          |   0.0 |  0.00
Comm    | 0.00053406 | 0.00053406 | 0.00053406 |   0.0 | 13.73
Output  | 0.0012343  | 0.0012343  | 0.0012343  |   0.0 | 31.72
Modify  | 0.00050879 | 0.00050879 | 0.00050879 |   0.0 | 13.08
Other   |            | 0.000845   |            |       | 21.72

Nlocal:    2 ave 2 max 2 min
Histogram: 1 0 0 0 0 0 0 0 0 0
Nghost:    0 ave 0 max 0 min
Histogram: 1 0 0 0 0 0 0 0 0 0
Neighs:    1 ave 1 max 1 min
Histogram: 1 0 0 0 0 0 0 0 0 0

Total # of neighbors = 1
Ave neighs/atom = 0.5
Ave special neighs/atom = 0
Neighbor list builds = 0
Dangerous builds = 0
  next a
  jump SELF loop
  displace_atoms atom2 move 0 -0.02 0
  run   1000
Neighbor list info ...
  update every 1 steps, delay 10 steps, check yes
  max neighbors/atom: 2000, page size: 100000
  master list distance cutoff = 2.8
  ghost atom cutoff = 2.8
  binsize = 1.4, bins = 29 29 29
  6 neighbor lists, perpetual/occasional/extra = 5 1 0
  (1) pair lj/expand/twopiece, perpetual, skip from (6)
      attributes: half, newton on
      pair build: skip
      stencil: none
      bin: none
  (2) pair soft/shift, perpetual, skip from (6)
      attributes: half, newton on
      pair build: skip
      stencil: none
      bin: none
  (3) pair zero, perpetual, skip from (6)
      attributes: half, newton on
      pair build: skip
      stencil: none
      bin: none
  (4) pair morse, perpetual, skip from (6)
      attributes: half, newton on
      pair build: skip
      stencil: none
      bin: none
  (5) compute pair/local, occasional, copy from (6)
      attributes: half, newton on
      pair build: copy
      stencil: none
      bin: none
  (6) neighbor class addition, perpetual
      attributes: half, newton on
      pair build: half/bin/newton
      stencil: half/bin/3d/newton
      bin: standard
Per MPI rank memory allocation (min/avg/max) = 9.201 | 9.201 | 9.201 Mbytes
Step Temp E_pair E_mol TotEng Press 
    5000            0 -0.00021107518            0 -0.00021107518 -1.3190806e-08 
    5200            0 -0.00021107518            0 -0.00021107518 -1.3190806e-08 
    5400            0 -0.00021107518            0 -0.00021107518 -1.3190806e-08 
    5600            0 -0.00021107518            0 -0.00021107518 -1.3190806e-08 
    5800            0 -0.00021107518            0 -0.00021107518 -1.3190806e-08 
    6000            0 -0.00021107518            0 -0.00021107518 -1.3190806e-08 
Loop time of 0.00573611 on 1 procs for 1000 steps with 2 atoms

Performance: 15062465.838 tau/day, 174334.095 timesteps/s
0.0% CPU use with 1 MPI tasks x 1 OpenMP threads

MPI task timing breakdown:
Section |  min time  |  avg time  |  max time  |%varavg| %total
---------------------------------------------------------------
Pair    | 0.00073028 | 0.00073028 | 0.00073028 |   0.0 | 12.73
Bond    | 0.0003767  | 0.0003767  | 0.0003767  |   0.0 |  6.57
Neigh   | 0          | 0          | 0          |   0.0 |  0.00
Comm    | 0.00062656 | 0.00062656 | 0.00062656 |   0.0 | 10.92
Output  | 0.0023413  | 0.0023413  | 0.0023413  |   0.0 | 40.82
Modify  | 0.00063491 | 0.00063491 | 0.00063491 |   0.0 | 11.07
Other   |            | 0.001026   |            |       | 17.89

Nlocal:    2 ave 2 max 2 min
Histogram: 1 0 0 0 0 0 0 0 0 0
Nghost:    0 ave 0 max 0 min
Histogram: 1 0 0 0 0 0 0 0 0 0
Neighs:    1 ave 1 max 1 min
Histogram: 1 0 0 0 0 0 0 0 0 0

Total # of neighbors = 1
Ave neighs/atom = 0.5
Ave special neighs/atom = 0
Neighbor list builds = 0
Dangerous builds = 0
  next a
  jump SELF loop
  displace_atoms atom2 move 0 -0.02 0
  run   1000
Neighbor list info ...
  update every 1 steps, delay 10 steps, check yes
  max neighbors/atom: 2000, page size: 100000
  master list distance cutoff = 2.8
  ghost atom cutoff = 2.8
  binsize = 1.4, bins = 29 29 29
  6 neighbor lists, perpetual/occasional/extra = 5 1 0
  (1) pair lj/expand/twopiece, perpetual, skip from (6)
      attributes: half, newton on
      pair build: skip
      stencil: none
      bin: none
  (2) pair soft/shift, perpetual, skip from (6)
      attributes: half, newton on
      pair build: skip
      stencil: none
      bin: none
  (3) pair zero, perpetual, skip from (6)
      attributes: half, newton on
      pair build: skip
      stencil: none
      bin: none
  (4) pair morse, perpetual, skip from (6)
      attributes: half, newton on
      pair build: skip
      stencil: none
      bin: none
  (5) compute pair/local, occasional, copy from (6)
      attributes: half, newton on
      pair build: copy
      stencil: none
      bin: none
  (6) neighbor class addition, perpetual
      attributes: half, newton on
      pair build: half/bin/newton
      stencil: half/bin/3d/newton
      bin: standard
Per MPI rank memory allocation (min/avg/max) = 9.201 | 9.201 | 9.201 Mbytes
Step Temp E_pair E_mol TotEng Press 
    6000            0 -0.00022242963            0 -0.00022242963 -1.3900305e-08 
    6200            0 -0.00022242963            0 -0.00022242963 -1.3900305e-08 
    6400            0 -0.00022242963            0 -0.00022242963 -1.3900305e-08 
    6600            0 -0.00022242963            0 -0.00022242963 -1.3900305e-08 
    6800            0 -0.00022242963            0 -0.00022242963 -1.3900305e-08 
    7000            0 -0.00022242963            0 -0.00022242963 -1.3900305e-08 
Loop time of 0.00390887 on 1 procs for 1000 steps with 2 atoms

Performance: 22103559.963 tau/day, 255828.240 timesteps/s
0.0% CPU use with 1 MPI tasks x 1 OpenMP threads

MPI task timing breakdown:
Section |  min time  |  avg time  |  max time  |%varavg| %total
---------------------------------------------------------------
Pair    | 0.0004797  | 0.0004797  | 0.0004797  |   0.0 | 12.27
Bond    | 0.00030327 | 0.00030327 | 0.00030327 |   0.0 |  7.76
Neigh   | 0          | 0          | 0          |   0.0 |  0.00
Comm    | 0.00053549 | 0.00053549 | 0.00053549 |   0.0 | 13.70
Output  | 0.0012338  | 0.0012338  | 0.0012338  |   0.0 | 31.56
Modify  | 0.00051999 | 0.00051999 | 0.00051999 |   0.0 | 13.30
Other   |            | 0.0008366  |            |       | 21.40

Nlocal:    2 ave 2 max 2 min
Histogram: 1 0 0 0 0 0 0 0 0 0
Nghost:    0 ave 0 max 0 min
Histogram: 1 0 0 0 0 0 0 0 0 0
Neighs:    1 ave 1 max 1 min
Histogram: 1 0 0 0 0 0 0 0 0 0

Total # of neighbors = 1
Ave neighs/atom = 0.5
Ave special neighs/atom = 0
Neighbor list builds = 0
Dangerous builds = 0
  next a
  jump SELF loop
  displace_atoms atom2 move 0 -0.02 0
  run   1000
Neighbor list info ...
  update every 1 steps, delay 10 steps, check yes
  max neighbors/atom: 2000, page size: 100000
  master list distance cutoff = 2.8
  ghost atom cutoff = 2.8
  binsize = 1.4, bins = 29 29 29
  6 neighbor lists, perpetual/occasional/extra = 5 1 0
  (1) pair lj/expand/twopiece, perpetual, skip from (6)
      attributes: half, newton on
      pair build: skip
      stencil: none
      bin: none
  (2) pair soft/shift, perpetual, skip from (6)
      attributes: half, newton on
      pair build: skip
      stencil: none
      bin: none
  (3) pair zero, perpetual, skip from (6)
      attributes: half, newton on
      pair build: skip
      stencil: none
      bin: none
  (4) pair morse, perpetual, skip from (6)
      attributes: half, newton on
      pair build: skip
      stencil: none
      bin: none
  (5) compute pair/local, occasional, copy from (6)
      attributes: half, newton on
      pair build: copy
      stencil: none
      bin: none
  (6) neighbor class addition, perpetual
      attributes: half, newton on
      pair build: half/bin/newton
      stencil: half/bin/3d/newton
      bin: standard
Per MPI rank memory allocation (min/avg/max) = 9.201 | 9.201 | 9.201 Mbytes
Step Temp E_pair E_mol TotEng Press 
    7000            0 -0.00023450303            0 -0.00023450303 -1.465472e-08 
    7200            0 -0.00023450303            0 -0.00023450303 -1.465472e-08 
    7400            0 -0.00023450303            0 -0.00023450303 -1.465472e-08 
    7600            0 -0.00023450303            0 -0.00023450303 -1.465472e-08 
    7800            0 -0.00023450303            0 -0.00023450303 -1.465472e-08 
    8000            0 -0.00023450303            0 -0.00023450303 -1.465472e-08 
Loop time of 0.00398684 on 1 procs for 1000 steps with 2 atoms

Performance: 21671323.143 tau/day, 250825.499 timesteps/s
0.0% CPU use with 1 MPI tasks x 1 OpenMP threads

MPI task timing breakdown:
Section |  min time  |  avg time  |  max time  |%varavg| %total
---------------------------------------------------------------
Pair    | 0.00049996 | 0.00049996 | 0.00049996 |   0.0 | 12.54
Bond    | 0.00029874 | 0.00029874 | 0.00029874 |   0.0 |  7.49
Neigh   | 0          | 0          | 0          |   0.0 |  0.00
Comm    | 0.00052881 | 0.00052881 | 0.00052881 |   0.0 | 13.26
Output  | 0.0012939  | 0.0012939  | 0.0012939  |   0.0 | 32.45
Modify  | 0.0005331  | 0.0005331  | 0.0005331  |   0.0 | 13.37
Other   |            | 0.0008323  |            |       | 20.88

Nlocal:    2 ave 2 max 2 min
Histogram: 1 0 0 0 0 0 0 0 0 0
Nghost:    0 ave 0 max 0 min
Histogram: 1 0 0 0 0 0 0 0 0 0
Neighs:    1 ave 1 max 1 min
Histogram: 1 0 0 0 0 0 0 0 0 0

Total # of neighbors = 1
Ave neighs/atom = 0.5
Ave special neighs/atom = 0
Neighbor list builds = 0
Dangerous builds = 0
  next a
  jump SELF loop
  displace_atoms atom2 move 0 -0.02 0
  run   1000
Neighbor list info ...
  update every 1 steps, delay 10 steps, check yes
  max neighbors/atom: 2000, page size: 100000
  master list distance cutoff = 2.8
  ghost atom cutoff = 2.8
  binsize = 1.4, bins = 29 29 29
  6 neighbor lists, perpetual/occasional/extra = 5 1 0
  (1) pair lj/expand/twopiece, perpetual, skip from (6)
      attributes: half, newton on
      pair build: skip
      stencil: none
      bin: none
  (2) pair soft/shift, perpetual, skip from (6)
      attributes: half, newton on
      pair build: skip
      stencil: none
      bin: none
  (3) pair zero, perpetual, skip from (6)
      attributes: half, newton on
      pair build: skip
      stencil: none
      bin: none
  (4) pair morse, perpetual, skip from (6)
      attributes: half, newton on
      pair build: skip
      stencil: none
      bin: none
  (5) compute pair/local, occasional, copy from (6)
      attributes: half, newton on
      pair build: copy
      stencil: none
      bin: none
  (6) neighbor class addition, perpetual
      attributes: half, newton on
      pair build: half/bin/newton
      stencil: half/bin/3d/newton
      bin: standard
Per MPI rank memory allocation (min/avg/max) = 9.201 | 9.201 | 9.201 Mbytes
Step Temp E_pair E_mol TotEng Press 
    8000            0 -0.00024734788            0 -0.00024734788 -1.545733e-08 
    8200            0 -0.00024734788            0 -0.00024734788 -1.545733e-08 
    8400            0 -0.00024734788            0 -0.00024734788 -1.545733e-08 
    8600            0 -0.00024734788            0 -0.00024734788 -1.545733e-08 
    8800            0 -0.00024734788            0 -0.00024734788 -1.545733e-08 
    9000            0 -0.00024734788            0 -0.00024734788 -1.545733e-08 
Loop time of 0.0037818 on 1 procs for 1000 steps with 2 atoms

Performance: 22846290.859 tau/day, 264424.663 timesteps/s
0.0% CPU use with 1 MPI tasks x 1 OpenMP threads

MPI task timing breakdown:
Section |  min time  |  avg time  |  max time  |%varavg| %total
---------------------------------------------------------------
Pair    | 0.00048757 | 0.00048757 | 0.00048757 |   0.0 | 12.89
Bond    | 0.00028944 | 0.00028944 | 0.00028944 |   0.0 |  7.65
Neigh   | 0          | 0          | 0          |   0.0 |  0.00
Comm    | 0.00052357 | 0.00052357 | 0.00052357 |   0.0 | 13.84
Output  | 0.0011456  | 0.0011456  | 0.0011456  |   0.0 | 30.29
Modify  | 0.00050282 | 0.00050282 | 0.00050282 |   0.0 | 13.30
Other   |            | 0.0008328  |            |       | 22.02

Nlocal:    2 ave 2 max 2 min
Histogram: 1 0 0 0 0 0 0 0 0 0
Nghost:    0 ave 0 max 0 min
Histogram: 1 0 0 0 0 0 0 0 0 0
Neighs:    1 ave 1 max 1 min
Histogram: 1 0 0 0 0 0 0 0 0 0

Total # of neighbors = 1
Ave neighs/atom = 0.5
Ave special neighs/atom = 0
Neighbor list builds = 0
Dangerous builds = 0
  next a
  jump SELF loop
  displace_atoms atom2 move 0 -0.02 0
  run   1000
Neighbor list info ...
  update every 1 steps, delay 10 steps, check yes
  max neighbors/atom: 2000, page size: 100000
  master list distance cutoff = 2.8
  ghost atom cutoff = 2.8
  binsize = 1.4, bins = 29 29 29
  6 neighbor lists, perpetual/occasional/extra = 5 1 0
  (1) pair lj/expand/twopiece, perpetual, skip from (6)
      attributes: half, newton on
      pair build: skip
      stencil: none
      bin: none
  (2) pair soft/shift, perpetual, skip from (6)
      attributes: half, newton on
      pair build: skip
      stencil: none
      bin: none
  (3) pair zero, perpetual, skip from (6)
      attributes: half, newton on
      pair build: skip
      stencil: none
      bin: none
  (4) pair morse, perpetual, skip from (6)
      attributes: half, newton on
      pair build: skip
      stencil: none
      bin: none
  (5) compute pair/local, occasional, copy from (6)
      attributes: half, newton on
      pair build: copy
      stencil: none
      bin: none
  (6) neighbor class addition, perpetual
      attributes: half, newton on
      pair build: half/bin/newton
      stencil: half/bin/3d/newton
      bin: standard
Per MPI rank memory allocation (min/avg/max) = 9.201 | 9.201 | 9.201 Mbytes
Step Temp E_pair E_mol TotEng Press 
    9000            0 -0.00026102102            0 -0.00026102102 -1.6311684e-08 
    9200            0 -0.00026102102            0 -0.00026102102 -1.6311684e-08 
    9400            0 -0.00026102102            0 -0.00026102102 -1.6311684e-08 
    9600            0 -0.00026102102            0 -0.00026102102 -1.6311684e-08 
    9800            0 -0.00026102102            0 -0.00026102102 -1.6311684e-08 
   10000            0 -0.00026102102            0 -0.00026102102 -1.6311684e-08 
Loop time of 0.00391507 on 1 procs for 1000 steps with 2 atoms

Performance: 22068562.548 tau/day, 255423.178 timesteps/s
0.0% CPU use with 1 MPI tasks x 1 OpenMP threads

MPI task timing breakdown:
Section |  min time  |  avg time  |  max time  |%varavg| %total
---------------------------------------------------------------
Pair    | 0.00050116 | 0.00050116 | 0.00050116 |   0.0 | 12.80
Bond    | 0.00029564 | 0.00029564 | 0.00029564 |   0.0 |  7.55
Neigh   | 0          | 0          | 0          |   0.0 |  0.00
Comm    | 0.00053716 | 0.00053716 | 0.00053716 |   0.0 | 13.72
Output  | 0.0012286  | 0.0012286  | 0.0012286  |   0.0 | 31.38
Modify  | 0.00051308 | 0.00051308 | 0.00051308 |   0.0 | 13.11
Other   |            | 0.0008395  |            |       | 21.44

Nlocal:    2 ave 2 max 2 min
Histogram: 1 0 0 0 0 0 0 0 0 0
Nghost:    0 ave 0 max 0 min
Histogram: 1 0 0 0 0 0 0 0 0 0
Neighs:    1 ave 1 max 1 min
Histogram: 1 0 0 0 0 0 0 0 0 0

Total # of neighbors = 1
Ave neighs/atom = 0.5
Ave special neighs/atom = 0
Neighbor list builds = 0
Dangerous builds = 0
  next a
  jump SELF loop
  displace_atoms atom2 move 0 -0.02 0
  run   1000
Neighbor list info ...
  update every 1 steps, delay 10 steps, check yes
  max neighbors/atom: 2000, page size: 100000
  master list distance cutoff = 2.8
  ghost atom cutoff = 2.8
  binsize = 1.4, bins = 29 29 29
  6 neighbor lists, perpetual/occasional/extra = 5 1 0
  (1) pair lj/expand/twopiece, perpetual, skip from (6)
      attributes: half, newton on
      pair build: skip
      stencil: none
      bin: none
  (2) pair soft/shift, perpetual, skip from (6)
      attributes: half, newton on
      pair build: skip
      stencil: none
      bin: none
  (3) pair zero, perpetual, skip from (6)
      attributes: half, newton on
      pair build: skip
      stencil: none
      bin: none
  (4) pair morse, perpetual, skip from (6)
      attributes: half, newton on
      pair build: skip
      stencil: none
      bin: none
  (5) compute pair/local, occasional, copy from (6)
      attributes: half, newton on
      pair build: copy
      stencil: none
      bin: none
  (6) neighbor class addition, perpetual
      attributes: half, newton on
      pair build: half/bin/newton
      stencil: half/bin/3d/newton
      bin: standard
Per MPI rank memory allocation (min/avg/max) = 9.201 | 9.201 | 9.201 Mbytes
Step Temp E_pair E_mol TotEng Press 
   10000            0 -0.00027558405            0 -0.00027558405 -1.7221629e-08 
   10200            0 -0.00027558405            0 -0.00027558405 -1.7221629e-08 
   10400            0 -0.00027558405            0 -0.00027558405 -1.7221629e-08 
   10600            0 -0.00027558405            0 -0.00027558405 -1.7221629e-08 
   10800            0 -0.00027558405            0 -0.00027558405 -1.7221629e-08 
   11000            0 -0.00027558405            0 -0.00027558405 -1.7221629e-08 
Loop time of 0.00401092 on 1 procs for 1000 steps with 2 atoms

Performance: 21541215.336 tau/day, 249319.622 timesteps/s
0.0% CPU use with 1 MPI tasks x 1 OpenMP threads

MPI task timing breakdown:
Section |  min time  |  avg time  |  max time  |%varavg| %total
---------------------------------------------------------------
Pair    | 0.00049782 | 0.00049782 | 0.00049782 |   0.0 | 12.41
Bond    | 0.00030684 | 0.00030684 | 0.00030684 |   0.0 |  7.65
Neigh   | 0          | 0          | 0          |   0.0 |  0.00
Comm    | 0.00051928 | 0.00051928 | 0.00051928 |   0.0 | 12.95
Output  | 0.0012958  | 0.0012958  | 0.0012958  |   0.0 | 32.31
Modify  | 0.00053167 | 0.00053167 | 0.00053167 |   0.0 | 13.26
Other   |            | 0.0008595  |            |       | 21.43

Nlocal:    2 ave 2 max 2 min
Histogram: 1 0 0 0 0 0 0 0 0 0
Nghost:    0 ave 0 max 0 min
Histogram: 1 0 0 0 0 0 0 0 0 0
Neighs:    1 ave 1 max 1 min
Histogram: 1 0 0 0 0 0 0 0 0 0

Total # of neighbors = 1
Ave neighs/atom = 0.5
Ave special neighs/atom = 0
Neighbor list builds = 0
Dangerous builds = 0
  next a
  jump SELF loop
  displace_atoms atom2 move 0 -0.02 0
  run   1000
Neighbor list info ...
  update every 1 steps, delay 10 steps, check yes
  max neighbors/atom: 2000, page size: 100000
  master list distance cutoff = 2.8
  ghost atom cutoff = 2.8
  binsize = 1.4, bins = 29 29 29
  6 neighbor lists, perpetual/occasional/extra = 5 1 0
  (1) pair lj/expand/twopiece, perpetual, skip from (6)
      attributes: half, newton on
      pair build: skip
      stencil: none
      bin: none
  (2) pair soft/shift, perpetual, skip from (6)
      attributes: half, newton on
      pair build: skip
      stencil: none
      bin: none
  (3) pair zero, perpetual, skip from (6)
      attributes: half, newton on
      pair build: skip
      stencil: none
      bin: none
  (4) pair morse, perpetual, skip from (6)
      attributes: half, newton on
      pair build: skip
      stencil: none
      bin: none
  (5) compute pair/local, occasional, copy from (6)
      attributes: half, newton on
      pair build: copy
      stencil: none
      bin: none
  (6) neighbor class addition, perpetual
      attributes: half, newton on
      pair build: half/bin/newton
      stencil: half/bin/3d/newton
      bin: standard
Per MPI rank memory allocation (min/avg/max) = 9.201 | 9.201 | 9.201 Mbytes
Step Temp E_pair E_mol TotEng Press 
   11000            0 -0.00029110377            0 -0.00029110377 -1.8191337e-08 
   11200            0 -0.00029110377            0 -0.00029110377 -1.8191337e-08 
   11400            0 -0.00029110377            0 -0.00029110377 -1.8191337e-08 
   11600            0 -0.00029110377            0 -0.00029110377 -1.8191337e-08 
   11800            0 -0.00029110377            0 -0.00029110377 -1.8191337e-08 
   12000            0 -0.00029110377            0 -0.00029110377 -1.8191337e-08 
Loop time of 0.00415015 on 1 procs for 1000 steps with 2 atoms

Performance: 20818513.564 tau/day, 240955.018 timesteps/s
0.0% CPU use with 1 MPI tasks x 1 OpenMP threads

MPI task timing breakdown:
Section |  min time  |  avg time  |  max time  |%varavg| %total
---------------------------------------------------------------
Pair    | 0.00051379 | 0.00051379 | 0.00051379 |   0.0 | 12.38
Bond    | 0.00031066 | 0.00031066 | 0.00031066 |   0.0 |  7.49
Neigh   | 0          | 0          | 0          |   0.0 |  0.00
Comm    | 0.00054145 | 0.00054145 | 0.00054145 |   0.0 | 13.05
Output  | 0.0013864  | 0.0013864  | 0.0013864  |   0.0 | 33.41
Modify  | 0.00053549 | 0.00053549 | 0.00053549 |   0.0 | 12.90
Other   |            | 0.0008624  |            |       | 20.78

Nlocal:    2 ave 2 max 2 min
Histogram: 1 0 0 0 0 0 0 0 0 0
Nghost:    0 ave 0 max 0 min
Histogram: 1 0 0 0 0 0 0 0 0 0
Neighs:    1 ave 1 max 1 min
Histogram: 1 0 0 0 0 0 0 0 0 0

Total # of neighbors = 1
Ave neighs/atom = 0.5
Ave special neighs/atom = 0
Neighbor list builds = 0
Dangerous builds = 0
  next a
  jump SELF loop
  displace_atoms atom2 move 0 -0.02 0
  run   1000
Neighbor list info ...
  update every 1 steps, delay 10 steps, check yes
  max neighbors/atom: 2000, page size: 100000
  master list distance cutoff = 2.8
  ghost atom cutoff = 2.8
  binsize = 1.4, bins = 29 29 29
  6 neighbor lists, perpetual/occasional/extra = 5 1 0
  (1) pair lj/expand/twopiece, perpetual, skip from (6)
      attributes: half, newton on
      pair build: skip
      stencil: none
      bin: none
  (2) pair soft/shift, perpetual, skip from (6)
      attributes: half, newton on
      pair build: skip
      stencil: none
      bin: none
  (3) pair zero, perpetual, skip from (6)
      attributes: half, newton on
      pair build: skip
      stencil: none
      bin: none
  (4) pair morse, perpetual, skip from (6)
      attributes: half, newton on
      pair build: skip
      stencil: none
      bin: none
  (5) compute pair/local, occasional, copy from (6)
      attributes: half, newton on
      pair build: copy
      stencil: none
      bin: none
  (6) neighbor class addition, perpetual
      attributes: half, newton on
      pair build: half/bin/newton
      stencil: half/bin/3d/newton
      bin: standard
Per MPI rank memory allocation (min/avg/max) = 9.201 | 9.201 | 9.201 Mbytes
Step Temp E_pair E_mol TotEng Press 
   12000            0 -0.00030765267            0 -0.00030765267 -1.9225333e-08 
   12200            0 -0.00030765267            0 -0.00030765267 -1.9225333e-08 
   12400            0 -0.00030765267            0 -0.00030765267 -1.9225333e-08 
   12600            0 -0.00030765267            0 -0.00030765267 -1.9225333e-08 
   12800            0 -0.00030765267            0 -0.00030765267 -1.9225333e-08 
   13000            0 -0.00030765267            0 -0.00030765267 -1.9225333e-08 
Loop time of 0.00383019 on 1 procs for 1000 steps with 2 atoms

Performance: 22557601.345 tau/day, 261083.349 timesteps/s
407.9% CPU use with 1 MPI tasks x 1 OpenMP threads

MPI task timing breakdown:
Section |  min time  |  avg time  |  max time  |%varavg| %total
---------------------------------------------------------------
Pair    | 0.00047421 | 0.00047421 | 0.00047421 |   0.0 | 12.38
Bond    | 0.00029874 | 0.00029874 | 0.00029874 |   0.0 |  7.80
Neigh   | 0          | 0          | 0          |   0.0 |  0.00
Comm    | 0.00054097 | 0.00054097 | 0.00054097 |   0.0 | 14.12
Output  | 0.0011752  | 0.0011752  | 0.0011752  |   0.0 | 30.68
Modify  | 0.00052285 | 0.00052285 | 0.00052285 |   0.0 | 13.65
Other   |            | 0.0008183  |            |       | 21.36

Nlocal:    2 ave 2 max 2 min
Histogram: 1 0 0 0 0 0 0 0 0 0
Nghost:    0 ave 0 max 0 min
Histogram: 1 0 0 0 0 0 0 0 0 0
Neighs:    1 ave 1 max 1 min
Histogram: 1 0 0 0 0 0 0 0 0 0

Total # of neighbors = 1
Ave neighs/atom = 0.5
Ave special neighs/atom = 0
Neighbor list builds = 0
Dangerous builds = 0
  next a
  jump SELF loop
  displace_atoms atom2 move 0 -0.02 0
  run   1000
Neighbor list info ...
  update every 1 steps, delay 10 steps, check yes
  max neighbors/atom: 2000, page size: 100000
  master list distance cutoff = 2.8
  ghost atom cutoff = 2.8
  binsize = 1.4, bins = 29 29 29
  6 neighbor lists, perpetual/occasional/extra = 5 1 0
  (1) pair lj/expand/twopiece, perpetual, skip from (6)
      attributes: half, newton on
      pair build: skip
      stencil: none
      bin: none
  (2) pair soft/shift, perpetual, skip from (6)
      attributes: half, newton on
      pair build: skip
      stencil: none
      bin: none
  (3) pair zero, perpetual, skip from (6)
      attributes: half, newton on
      pair build: skip
      stencil: none
      bin: none
  (4) pair morse, perpetual, skip from (6)
      attributes: half, newton on
      pair build: skip
      stencil: none
      bin: none
  (5) compute pair/local, occasional, copy from (6)
      attributes: half, newton on
      pair build: copy
      stencil: none
      bin: none
  (6) neighbor class addition, perpetual
      attributes: half, newton on
      pair build: half/bin/newton
      stencil: half/bin/3d/newton
      bin: standard
Per MPI rank memory allocation (min/avg/max) = 9.201 | 9.201 | 9.201 Mbytes
Step Temp E_pair E_mol TotEng Press 
   13000            0 -0.00032530948            0 -0.00032530948 -2.0328535e-08 
   13200            0 -0.00032530948            0 -0.00032530948 -2.0328535e-08 
   13400            0 -0.00032530948            0 -0.00032530948 -2.0328535e-08 
   13600            0 -0.00032530948            0 -0.00032530948 -2.0328535e-08 
   13800            0 -0.00032530948            0 -0.00032530948 -2.0328535e-08 
   14000            0 -0.00032530948            0 -0.00032530948 -2.0328535e-08 
Loop time of 0.0038178 on 1 procs for 1000 steps with 2 atoms

Performance: 22630854.031 tau/day, 261931.181 timesteps/s
0.0% CPU use with 1 MPI tasks x 1 OpenMP threads

MPI task timing breakdown:
Section |  min time  |  avg time  |  max time  |%varavg| %total
---------------------------------------------------------------
Pair    | 0.00048208 | 0.00048208 | 0.00048208 |   0.0 | 12.63
Bond    | 0.00029707 | 0.00029707 | 0.00029707 |   0.0 |  7.78
Neigh   | 0          | 0          | 0          |   0.0 |  0.00
Comm    | 0.00051427 | 0.00051427 | 0.00051427 |   0.0 | 13.47
Output  | 0.0011711  | 0.0011711  | 0.0011711  |   0.0 | 30.68
Modify  | 0.00051165 | 0.00051165 | 0.00051165 |   0.0 | 13.40
Other   |            | 0.0008416  |            |       | 22.04

Nlocal:    2 ave 2 max 2 min
Histogram: 1 0 0 0 0 0 0 0 0 0
Nghost:    0 ave 0 max 0 min
Histogram: 1 0 0 0 0 0 0 0 0 0
Neighs:    1 ave 1 max 1 min
Histogram: 1 0 0 0 0 0 0 0 0 0

Total # of neighbors = 1
Ave neighs/atom = 0.5
Ave special neighs/atom = 0
Neighbor list builds = 0
Dangerous builds = 0
  next a
  jump SELF loop
  displace_atoms atom2 move 0 -0.02 0
  run   1000
Neighbor list info ...
  update every 1 steps, delay 10 steps, check yes
  max neighbors/atom: 2000, page size: 100000
  master list distance cutoff = 2.8
  ghost atom cutoff = 2.8
  binsize = 1.4, bins = 29 29 29
  6 neighbor lists, perpetual/occasional/extra = 5 1 0
  (1) pair lj/expand/twopiece, perpetual, skip from (6)
      attributes: half, newton on
      pair build: skip
      stencil: none
      bin: none
  (2) pair soft/shift, perpetual, skip from (6)
      attributes: half, newton on
      pair build: skip
      stencil: none
      bin: none
  (3) pair zero, perpetual, skip from (6)
      attributes: half, newton on
      pair build: skip
      stencil: none
      bin: none
  (4) pair morse, perpetual, skip from (6)
      attributes: half, newton on
      pair build: skip
      stencil: none
      bin: none
  (5) compute pair/local, occasional, copy from (6)
      attributes: half, newton on
      pair build: copy
      stencil: none
      bin: none
  (6) neighbor class addition, perpetual
      attributes: half, newton on
      pair build: half/bin/newton
      stencil: half/bin/3d/newton
      bin: standard
Per MPI rank memory allocation (min/avg/max) = 9.201 | 9.201 | 9.201 Mbytes
Step Temp E_pair E_mol TotEng Press 
   14000            0 -0.00034415977            0 -0.00034415977 -2.1506283e-08 
   14200            0 -0.00034415977            0 -0.00034415977 -2.1506283e-08 
   14400            0 -0.00034415977            0 -0.00034415977 -2.1506283e-08 
   14600            0 -0.00034415977            0 -0.00034415977 -2.1506283e-08 
   14800            0 -0.00034415977            0 -0.00034415977 -2.1506283e-08 
   15000            0 -0.00034415977            0 -0.00034415977 -2.1506283e-08 
Loop time of 0.00418997 on 1 procs for 1000 steps with 2 atoms

Performance: 20620682.008 tau/day, 238665.301 timesteps/s
0.0% CPU use with 1 MPI tasks x 1 OpenMP threads

MPI task timing breakdown:
Section |  min time  |  avg time  |  max time  |%varavg| %total
---------------------------------------------------------------
Pair    | 0.00051999 | 0.00051999 | 0.00051999 |   0.0 | 12.41
Bond    | 0.00031066 | 0.00031066 | 0.00031066 |   0.0 |  7.41
Neigh   | 0          | 0          | 0          |   0.0 |  0.00
Comm    | 0.00055456 | 0.00055456 | 0.00055456 |   0.0 | 13.24
Output  | 0.0014038  | 0.0014038  | 0.0014038  |   0.0 | 33.50
Modify  | 0.00055051 | 0.00055051 | 0.00055051 |   0.0 | 13.14
Other   |            | 0.0008504  |            |       | 20.30

Nlocal:    2 ave 2 max 2 min
Histogram: 1 0 0 0 0 0 0 0 0 0
Nghost:    0 ave 0 max 0 min
Histogram: 1 0 0 0 0 0 0 0 0 0
Neighs:    1 ave 1 max 1 min
Histogram: 1 0 0 0 0 0 0 0 0 0

Total # of neighbors = 1
Ave neighs/atom = 0.5
Ave special neighs/atom = 0
Neighbor list builds = 0
Dangerous builds = 0
  next a
  jump SELF loop
  displace_atoms atom2 move 0 -0.02 0
  run   1000
Neighbor list info ...
  update every 1 steps, delay 10 steps, check yes
  max neighbors/atom: 2000, page size: 100000
  master list distance cutoff = 2.8
  ghost atom cutoff = 2.8
  binsize = 1.4, bins = 29 29 29
  6 neighbor lists, perpetual/occasional/extra = 5 1 0
  (1) pair lj/expand/twopiece, perpetual, skip from (6)
      attributes: half, newton on
      pair build: skip
      stencil: none
      bin: none
  (2) pair soft/shift, perpetual, skip from (6)
      attributes: half, newton on
      pair build: skip
      stencil: none
      bin: none
  (3) pair zero, perpetual, skip from (6)
      attributes: half, newton on
      pair build: skip
      stencil: none
      bin: none
  (4) pair morse, perpetual, skip from (6)
      attributes: half, newton on
      pair build: skip
      stencil: none
      bin: none
  (5) compute pair/local, occasional, copy from (6)
      attributes: half, newton on
      pair build: copy
      stencil: none
      bin: none
  (6) neighbor class addition, perpetual
      attributes: half, newton on
      pair build: half/bin/newton
      stencil: half/bin/3d/newton
      bin: standard
Per MPI rank memory allocation (min/avg/max) = 9.201 | 9.201 | 9.201 Mbytes
Step Temp E_pair E_mol TotEng Press 
   15000            0 -0.00036429661            0 -0.00036429661 -2.2764389e-08 
   15200            0 -0.00036429661            0 -0.00036429661 -2.2764389e-08 
   15400            0 -0.00036429661            0 -0.00036429661 -2.2764389e-08 
   15600            0 -0.00036429661            0 -0.00036429661 -2.2764389e-08 
   15800            0 -0.00036429661            0 -0.00036429661 -2.2764389e-08 
   16000            0 -0.00036429661            0 -0.00036429661 -2.2764389e-08 
Loop time of 0.00383091 on 1 procs for 1000 steps with 2 atoms

Performance: 22553389.694 tau/day, 261034.603 timesteps/s
0.0% CPU use with 1 MPI tasks x 1 OpenMP threads

MPI task timing breakdown:
Section |  min time  |  avg time  |  max time  |%varavg| %total
---------------------------------------------------------------
Pair    | 0.0004797  | 0.0004797  | 0.0004797  |   0.0 | 12.52
Bond    | 0.00029421 | 0.00029421 | 0.00029421 |   0.0 |  7.68
Neigh   | 0          | 0          | 0          |   0.0 |  0.00
Comm    | 0.00051975 | 0.00051975 | 0.00051975 |   0.0 | 13.57
Output  | 0.0011823  | 0.0011823  | 0.0011823  |   0.0 | 30.86
Modify  | 0.00051713 | 0.00051713 | 0.00051713 |   0.0 | 13.50
Other   |            | 0.0008378  |            |       | 21.87

Nlocal:    2 ave 2 max 2 min
Histogram: 1 0 0 0 0 0 0 0 0 0
Nghost:    0 ave 0 max 0 min
Histogram: 1 0 0 0 0 0 0 0 0 0
Neighs:    1 ave 1 max 1 min
Histogram: 1 0 0 0 0 0 0 0 0 0

Total # of neighbors = 1
Ave neighs/atom = 0.5
Ave special neighs/atom = 0
Neighbor list builds = 0
Dangerous builds = 0
  next a
  jump SELF loop
  displace_atoms atom2 move 0 -0.02 0
  run   1000
Neighbor list info ...
  update every 1 steps, delay 10 steps, check yes
  max neighbors/atom: 2000, page size: 100000
  master list distance cutoff = 2.8
  ghost atom cutoff = 2.8
  binsize = 1.4, bins = 29 29 29
  6 neighbor lists, perpetual/occasional/extra = 5 1 0
  (1) pair lj/expand/twopiece, perpetual, skip from (6)
      attributes: half, newton on
      pair build: skip
      stencil: none
      bin: none
  (2) pair soft/shift, perpetual, skip from (6)
      attributes: half, newton on
      pair build: skip
      stencil: none
      bin: none
  (3) pair zero, perpetual, skip from (6)
      attributes: half, newton on
      pair build: skip
      stencil: none
      bin: none
  (4) pair morse, perpetual, skip from (6)
      attributes: half, newton on
      pair build: skip
      stencil: none
      bin: none
  (5) compute pair/local, occasional, copy from (6)
      attributes: half, newton on
      pair build: copy
      stencil: none
      bin: none
  (6) neighbor class addition, perpetual
      attributes: half, newton on
      pair build: half/bin/newton
      stencil: half/bin/3d/newton
      bin: standard
Per MPI rank memory allocation (min/avg/max) = 9.201 | 9.201 | 9.201 Mbytes
Step Temp E_pair E_mol TotEng Press 
   16000            0 -0.00038582131            0 -0.00038582131 -2.4109178e-08 
   16200            0 -0.00038582131            0 -0.00038582131 -2.4109178e-08 
   16400            0 -0.00038582131            0 -0.00038582131 -2.4109178e-08 
   16600            0 -0.00038582131            0 -0.00038582131 -2.4109178e-08 
   16800            0 -0.00038582131            0 -0.00038582131 -2.4109178e-08 
   17000            0 -0.00038582131            0 -0.00038582131 -2.4109178e-08 
Loop time of 0.00380492 on 1 procs for 1000 steps with 2 atoms

Performance: 22707429.388 tau/day, 262817.470 timesteps/s
0.0% CPU use with 1 MPI tasks x 1 OpenMP threads

MPI task timing breakdown:
Section |  min time  |  avg time  |  max time  |%varavg| %total
---------------------------------------------------------------
Pair    | 0.00047922 | 0.00047922 | 0.00047922 |   0.0 | 12.59
Bond    | 0.00028944 | 0.00028944 | 0.00028944 |   0.0 |  7.61
Neigh   | 0          | 0          | 0          |   0.0 |  0.00
Comm    | 0.00052333 | 0.00052333 | 0.00052333 |   0.0 | 13.75
Output  | 0.0011749  | 0.0011749  | 0.0011749  |   0.0 | 30.88
Modify  | 0.00051761 | 0.00051761 | 0.00051761 |   0.0 | 13.60
Other   |            | 0.0008204  |            |       | 21.56

Nlocal:    2 ave 2 max 2 min
Histogram: 1 0 0 0 0 0 0 0 0 0
Nghost:    0 ave 0 max 0 min
Histogram: 1 0 0 0 0 0 0 0 0 0
Neighs:    1 ave 1 max 1 min
Histogram: 1 0 0 0 0 0 0 0 0 0

Total # of neighbors = 1
Ave neighs/atom = 0.5
Ave special neighs/atom = 0
Neighbor list builds = 0
Dangerous builds = 0
  next a
  jump SELF loop
  displace_atoms atom2 move 0 -0.02 0
  run   1000
Neighbor list info ...
  update every 1 steps, delay 10 steps, check yes
  max neighbors/atom: 2000, page size: 100000
  master list distance cutoff = 2.8
  ghost atom cutoff = 2.8
  binsize = 1.4, bins = 29 29 29
  6 neighbor lists, perpetual/occasional/extra = 5 1 0
  (1) pair lj/expand/twopiece, perpetual, skip from (6)
      attributes: half, newton on
      pair build: skip
      stencil: none
      bin: none
  (2) pair soft/shift, perpetual, skip from (6)
      attributes: half, newton on
      pair build: skip
      stencil: none
      bin: none
  (3) pair zero, perpetual, skip from (6)
      attributes: half, newton on
      pair build: skip
      stencil: none
      bin: none
  (4) pair morse, perpetual, skip from (6)
      attributes: half, newton on
      pair build: skip
      stencil: none
      bin: none
  (5) compute pair/local, occasional, copy from (6)
      attributes: half, newton on
      pair build: copy
      stencil: none
      bin: none
  (6) neighbor class addition, perpetual
      attributes: half, newton on
      pair build: half/bin/newton
      stencil: half/bin/3d/newton
      bin: standard
Per MPI rank memory allocation (min/avg/max) = 9.201 | 9.201 | 9.201 Mbytes
Step Temp E_pair E_mol TotEng Press 
   17000            0 -0.00040884425            0 -0.00040884425 -2.554754e-08 
   17200            0 -0.00040884425            0 -0.00040884425 -2.554754e-08 
   17400            0 -0.00040884425            0 -0.00040884425 -2.554754e-08 
   17600            0 -0.00040884425            0 -0.00040884425 -2.554754e-08 
   17800            0 -0.00040884425            0 -0.00040884425 -2.554754e-08 
   18000            0 -0.00040884425            0 -0.00040884425 -2.554754e-08 
Loop time of 0.00384712 on 1 procs for 1000 steps with 2 atoms

Performance: 22458345.662 tau/day, 259934.556 timesteps/s
0.0% CPU use with 1 MPI tasks x 1 OpenMP threads

MPI task timing breakdown:
Section |  min time  |  avg time  |  max time  |%varavg| %total
---------------------------------------------------------------
Pair    | 0.00047874 | 0.00047874 | 0.00047874 |   0.0 | 12.44
Bond    | 0.00031328 | 0.00031328 | 0.00031328 |   0.0 |  8.14
Neigh   | 0          | 0          | 0          |   0.0 |  0.00
Comm    | 0.00051928 | 0.00051928 | 0.00051928 |   0.0 | 13.50
Output  | 0.0011933  | 0.0011933  | 0.0011933  |   0.0 | 31.02
Modify  | 0.00052357 | 0.00052357 | 0.00052357 |   0.0 | 13.61
Other   |            | 0.000819   |            |       | 21.29

Nlocal:    2 ave 2 max 2 min
Histogram: 1 0 0 0 0 0 0 0 0 0
Nghost:    0 ave 0 max 0 min
Histogram: 1 0 0 0 0 0 0 0 0 0
Neighs:    1 ave 1 max 1 min
Histogram: 1 0 0 0 0 0 0 0 0 0

Total # of neighbors = 1
Ave neighs/atom = 0.5
Ave special neighs/atom = 0
Neighbor list builds = 0
Dangerous builds = 0
  next a
  jump SELF loop
  displace_atoms atom2 move 0 -0.02 0
  run   1000
Neighbor list info ...
  update every 1 steps, delay 10 steps, check yes
  max neighbors/atom: 2000, page size: 100000
  master list distance cutoff = 2.8
  ghost atom cutoff = 2.8
  binsize = 1.4, bins = 29 29 29
  6 neighbor lists, perpetual/occasional/extra = 5 1 0
  (1) pair lj/expand/twopiece, perpetual, skip from (6)
      attributes: half, newton on
      pair build: skip
      stencil: none
      bin: none
  (2) pair soft/shift, perpetual, skip from (6)
      attributes: half, newton on
      pair build: skip
      stencil: none
      bin: none
  (3) pair zero, perpetual, skip from (6)
      attributes: half, newton on
      pair build: skip
      stencil: none
      bin: none
  (4) pair morse, perpetual, skip from (6)
      attributes: half, newton on
      pair build: skip
      stencil: none
      bin: none
  (5) compute pair/local, occasional, copy from (6)
      attributes: half, newton on
      pair build: copy
      stencil: none
      bin: none
  (6) neighbor class addition, perpetual
      attributes: half, newton on
      pair build: half/bin/newton
      stencil: half/bin/3d/newton
      bin: standard
Per MPI rank memory allocation (min/avg/max) = 9.201 | 9.201 | 9.201 Mbytes
Step Temp E_pair E_mol TotEng Press 
   18000            0 -0.00043348578            0 -0.00043348578 -2.7086987e-08 
   18200            0 -0.00043348578            0 -0.00043348578 -2.7086987e-08 
   18400            0 -0.00043348578            0 -0.00043348578 -2.7086987e-08 
   18600            0 -0.00043348578            0 -0.00043348578 -2.7086987e-08 
   18800            0 -0.00043348578            0 -0.00043348578 -2.7086987e-08 
   19000            0 -0.00043348578            0 -0.00043348578 -2.7086987e-08 
Loop time of 0.00381517 on 1 procs for 1000 steps with 2 atoms

Performance: 22646410.799 tau/day, 262111.236 timesteps/s
0.0% CPU use with 1 MPI tasks x 1 OpenMP threads

MPI task timing breakdown:
Section |  min time  |  avg time  |  max time  |%varavg| %total
---------------------------------------------------------------
Pair    | 0.00048375 | 0.00048375 | 0.00048375 |   0.0 | 12.68
Bond    | 0.00030136 | 0.00030136 | 0.00030136 |   0.0 |  7.90
Neigh   | 0          | 0          | 0          |   0.0 |  0.00
Comm    | 0.00052404 | 0.00052404 | 0.00052404 |   0.0 | 13.74
Output  | 0.0011711  | 0.0011711  | 0.0011711  |   0.0 | 30.70
Modify  | 0.00053096 | 0.00053096 | 0.00053096 |   0.0 | 13.92
Other   |            | 0.0008039  |            |       | 21.07

Nlocal:    2 ave 2 max 2 min
Histogram: 1 0 0 0 0 0 0 0 0 0
Nghost:    0 ave 0 max 0 min
Histogram: 1 0 0 0 0 0 0 0 0 0
Neighs:    1 ave 1 max 1 min
Histogram: 1 0 0 0 0 0 0 0 0 0

Total # of neighbors = 1
Ave neighs/atom = 0.5
Ave special neighs/atom = 0
Neighbor list builds = 0
Dangerous builds = 0
  next a
  jump SELF loop
  displace_atoms atom2 move 0 -0.02 0
  run   1000
Neighbor list info ...
  update every 1 steps, delay 10 steps, check yes
  max neighbors/atom: 2000, page size: 100000
  master list distance cutoff = 2.8
  ghost atom cutoff = 2.8
  binsize = 1.4, bins = 29 29 29
  6 neighbor lists, perpetual/occasional/extra = 5 1 0
  (1) pair lj/expand/twopiece, perpetual, skip from (6)
      attributes: half, newton on
      pair build: skip
      stencil: none
      bin: none
  (2) pair soft/shift, perpetual, skip from (6)
      attributes: half, newton on
      pair build: skip
      stencil: none
      bin: none
  (3) pair zero, perpetual, skip from (6)
      attributes: half, newton on
      pair build: skip
      stencil: none
      bin: none
  (4) pair morse, perpetual, skip from (6)
      attributes: half, newton on
      pair build: skip
      stencil: none
      bin: none
  (5) compute pair/local, occasional, copy from (6)
      attributes: half, newton on
      pair build: copy
      stencil: none
      bin: none
  (6) neighbor class addition, perpetual
      attributes: half, newton on
      pair build: half/bin/newton
      stencil: half/bin/3d/newton
      bin: standard
Per MPI rank memory allocation (min/avg/max) = 9.201 | 9.201 | 9.201 Mbytes
Step Temp E_pair E_mol TotEng Press 
   19000            0 -0.00045987723            0 -0.00045987723 -2.8735715e-08 
   19200            0 -0.00045987723            0 -0.00045987723 -2.8735715e-08 
   19400            0 -0.00045987723            0 -0.00045987723 -2.8735715e-08 
   19600            0 -0.00045987723            0 -0.00045987723 -2.8735715e-08 
   19800            0 -0.00045987723            0 -0.00045987723 -2.8735715e-08 
   20000            0 -0.00045987723            0 -0.00045987723 -2.8735715e-08 
Loop time of 0.00381112 on 1 procs for 1000 steps with 2 atoms

Performance: 22670495.189 tau/day, 262389.991 timesteps/s
410.0% CPU use with 1 MPI tasks x 1 OpenMP threads

MPI task timing breakdown:
Section |  min time  |  avg time  |  max time  |%varavg| %total
---------------------------------------------------------------
Pair    | 0.00048566 | 0.00048566 | 0.00048566 |   0.0 | 12.74
Bond    | 0.00028586 | 0.00028586 | 0.00028586 |   0.0 |  7.50
Neigh   | 0          | 0          | 0          |   0.0 |  0.00
Comm    | 0.00052381 | 0.00052381 | 0.00052381 |   0.0 | 13.74
Output  | 0.0011594  | 0.0011594  | 0.0011594  |   0.0 | 30.42
Modify  | 0.00050879 | 0.00050879 | 0.00050879 |   0.0 | 13.35
Other   |            | 0.0008476  |            |       | 22.24

Nlocal:    2 ave 2 max 2 min
Histogram: 1 0 0 0 0 0 0 0 0 0
Nghost:    0 ave 0 max 0 min
Histogram: 1 0 0 0 0 0 0 0 0 0
Neighs:    1 ave 1 max 1 min
Histogram: 1 0 0 0 0 0 0 0 0 0

Total # of neighbors = 1
Ave neighs/atom = 0.5
Ave special neighs/atom = 0
Neighbor list builds = 0
Dangerous builds = 0
  next a
  jump SELF loop
  displace_atoms atom2 move 0 -0.02 0
  run   1000
Neighbor list info ...
  update every 1 steps, delay 10 steps, check yes
  max neighbors/atom: 2000, page size: 100000
  master list distance cutoff = 2.8
  ghost atom cutoff = 2.8
  binsize = 1.4, bins = 29 29 29
  6 neighbor lists, perpetual/occasional/extra = 5 1 0
  (1) pair lj/expand/twopiece, perpetual, skip from (6)
      attributes: half, newton on
      pair build: skip
      stencil: none
      bin: none
  (2) pair soft/shift, perpetual, skip from (6)
      attributes: half, newton on
      pair build: skip
      stencil: none
      bin: none
  (3) pair zero, perpetual, skip from (6)
      attributes: half, newton on
      pair build: skip
      stencil: none
      bin: none
  (4) pair morse, perpetual, skip from (6)
      attributes: half, newton on
      pair build: skip
      stencil: none
      bin: none
  (5) compute pair/local, occasional, copy from (6)
      attributes: half, newton on
      pair build: copy
      stencil: none
      bin: none
  (6) neighbor class addition, perpetual
      attributes: half, newton on
      pair build: half/bin/newton
      stencil: half/bin/3d/newton
      bin: standard
Per MPI rank memory allocation (min/avg/max) = 9.201 | 9.201 | 9.201 Mbytes
Step Temp E_pair E_mol TotEng Press 
   20000            0 -0.00048816204            0 -0.00048816204 -3.0502677e-08 
   20200            0 -0.00048816204            0 -0.00048816204 -3.0502677e-08 
   20400            0 -0.00048816204            0 -0.00048816204 -3.0502677e-08 
   20600            0 -0.00048816204            0 -0.00048816204 -3.0502677e-08 
   20800            0 -0.00048816204            0 -0.00048816204 -3.0502677e-08 
   21000            0 -0.00048816204            0 -0.00048816204 -3.0502677e-08 
Loop time of 0.00381303 on 1 procs for 1000 steps with 2 atoms

Performance: 22659154.980 tau/day, 262258.738 timesteps/s
0.0% CPU use with 1 MPI tasks x 1 OpenMP threads

MPI task timing breakdown:
Section |  min time  |  avg time  |  max time  |%varavg| %total
---------------------------------------------------------------
Pair    | 0.00047874 | 0.00047874 | 0.00047874 |   0.0 | 12.56
Bond    | 0.00029993 | 0.00029993 | 0.00029993 |   0.0 |  7.87
Neigh   | 0          | 0          | 0          |   0.0 |  0.00
Comm    | 0.00052786 | 0.00052786 | 0.00052786 |   0.0 | 13.84
Output  | 0.0011446  | 0.0011446  | 0.0011446  |   0.0 | 30.02
Modify  | 0.00052714 | 0.00052714 | 0.00052714 |   0.0 | 13.82
Other   |            | 0.0008347  |            |       | 21.89

Nlocal:    2 ave 2 max 2 min
Histogram: 1 0 0 0 0 0 0 0 0 0
Nghost:    0 ave 0 max 0 min
Histogram: 1 0 0 0 0 0 0 0 0 0
Neighs:    1 ave 1 max 1 min
Histogram: 1 0 0 0 0 0 0 0 0 0

Total # of neighbors = 1
Ave neighs/atom = 0.5
Ave special neighs/atom = 0
Neighbor list builds = 0
Dangerous builds = 0
  next a
  jump SELF loop
  displace_atoms atom2 move 0 -0.02 0
  run   1000
Neighbor list info ...
  update every 1 steps, delay 10 steps, check yes
  max neighbors/atom: 2000, page size: 100000
  master list distance cutoff = 2.8
  ghost atom cutoff = 2.8
  binsize = 1.4, bins = 29 29 29
  6 neighbor lists, perpetual/occasional/extra = 5 1 0
  (1) pair lj/expand/twopiece, perpetual, skip from (6)
      attributes: half, newton on
      pair build: skip
      stencil: none
      bin: none
  (2) pair soft/shift, perpetual, skip from (6)
      attributes: half, newton on
      pair build: skip
      stencil: none
      bin: none
  (3) pair zero, perpetual, skip from (6)
      attributes: half, newton on
      pair build: skip
      stencil: none
      bin: none
  (4) pair morse, perpetual, skip from (6)
      attributes: half, newton on
      pair build: skip
      stencil: none
      bin: none
  (5) compute pair/local, occasional, copy from (6)
      attributes: half, newton on
      pair build: copy
      stencil: none
      bin: none
  (6) neighbor class addition, perpetual
      attributes: half, newton on
      pair build: half/bin/newton
      stencil: half/bin/3d/newton
      bin: standard
Per MPI rank memory allocation (min/avg/max) = 9.201 | 9.201 | 9.201 Mbytes
Step Temp E_pair E_mol TotEng Press 
   21000            0 -0.000518497            0 -0.000518497 -3.2397657e-08 
   21200            0 -0.000518497            0 -0.000518497 -3.2397657e-08 
   21400            0 -0.000518497            0 -0.000518497 -3.2397657e-08 
   21600            0 -0.000518497            0 -0.000518497 -3.2397657e-08 
   21800            0 -0.000518497            0 -0.000518497 -3.2397657e-08 
   22000            0 -0.000518497            0 -0.000518497 -3.2397657e-08 
Loop time of 0.00396585 on 1 procs for 1000 steps with 2 atoms

Performance: 21785972.442 tau/day, 252152.459 timesteps/s
0.0% CPU use with 1 MPI tasks x 1 OpenMP threads

MPI task timing breakdown:
Section |  min time  |  avg time  |  max time  |%varavg| %total
---------------------------------------------------------------
Pair    | 0.0004859  | 0.0004859  | 0.0004859  |   0.0 | 12.25
Bond    | 0.00030804 | 0.00030804 | 0.00030804 |   0.0 |  7.77
Neigh   | 0          | 0          | 0          |   0.0 |  0.00
Comm    | 0.00052023 | 0.00052023 | 0.00052023 |   0.0 | 13.12
Output  | 0.0012705  | 0.0012705  | 0.0012705  |   0.0 | 32.04
Modify  | 0.0005362  | 0.0005362  | 0.0005362  |   0.0 | 13.52
Other   |            | 0.000845   |            |       | 21.31

Nlocal:    2 ave 2 max 2 min
Histogram: 1 0 0 0 0 0 0 0 0 0
Nghost:    0 ave 0 max 0 min
Histogram: 1 0 0 0 0 0 0 0 0 0
Neighs:    1 ave 1 max 1 min
Histogram: 1 0 0 0 0 0 0 0 0 0

Total # of neighbors = 1
Ave neighs/atom = 0.5
Ave special neighs/atom = 0
Neighbor list builds = 0
Dangerous builds = 0
  next a
  jump SELF loop
  displace_atoms atom2 move 0 -0.02 0
  run   1000
Neighbor list info ...
  update every 1 steps, delay 10 steps, check yes
  max neighbors/atom: 2000, page size: 100000
  master list distance cutoff = 2.8
  ghost atom cutoff = 2.8
  binsize = 1.4, bins = 29 29 29
  6 neighbor lists, perpetual/occasional/extra = 5 1 0
  (1) pair lj/expand/twopiece, perpetual, skip from (6)
      attributes: half, newton on
      pair build: skip
      stencil: none
      bin: none
  (2) pair soft/shift, perpetual, skip from (6)
      attributes: half, newton on
      pair build: skip
      stencil: none
      bin: none
  (3) pair zero, perpetual, skip from (6)
      attributes: half, newton on
      pair build: skip
      stencil: none
      bin: none
  (4) pair morse, perpetual, skip from (6)
      attributes: half, newton on
      pair build: skip
      stencil: none
      bin: none
  (5) compute pair/local, occasional, copy from (6)
      attributes: half, newton on
      pair build: copy
      stencil: none
      bin: none
  (6) neighbor class addition, perpetual
      attributes: half, newton on
      pair build: half/bin/newton
      stencil: half/bin/3d/newton
      bin: standard
Per MPI rank memory allocation (min/avg/max) = 9.201 | 9.201 | 9.201 Mbytes
Step Temp E_pair E_mol TotEng Press 
   22000            0 -0.00055105365            0 -0.00055105365 -3.4431359e-08 
   22200            0 -0.00055105365            0 -0.00055105365 -3.4431359e-08 
   22400            0 -0.00055105365            0 -0.00055105365 -3.4431359e-08 
   22600            0 -0.00055105365            0 -0.00055105365 -3.4431359e-08 
   22800            0 -0.00055105365            0 -0.00055105365 -3.4431359e-08 
   23000            0 -0.00055105365            0 -0.00055105365 -3.4431359e-08 
Loop time of 0.00388217 on 1 procs for 1000 steps with 2 atoms

Performance: 22255595.750 tau/day, 257587.914 timesteps/s
0.0% CPU use with 1 MPI tasks x 1 OpenMP threads

MPI task timing breakdown:
Section |  min time  |  avg time  |  max time  |%varavg| %total
---------------------------------------------------------------
Pair    | 0.00047231 | 0.00047231 | 0.00047231 |   0.0 | 12.17
Bond    | 0.00030565 | 0.00030565 | 0.00030565 |   0.0 |  7.87
Neigh   | 0          | 0          | 0          |   0.0 |  0.00
Comm    | 0.00052118 | 0.00052118 | 0.00052118 |   0.0 | 13.43
Output  | 0.0012133  | 0.0012133  | 0.0012133  |   0.0 | 31.25
Modify  | 0.00051665 | 0.00051665 | 0.00051665 |   0.0 | 13.31
Other   |            | 0.0008531  |            |       | 21.97

Nlocal:    2 ave 2 max 2 min
Histogram: 1 0 0 0 0 0 0 0 0 0
Nghost:    0 ave 0 max 0 min
Histogram: 1 0 0 0 0 0 0 0 0 0
Neighs:    1 ave 1 max 1 min
Histogram: 1 0 0 0 0 0 0 0 0 0

Total # of neighbors = 1
Ave neighs/atom = 0.5
Ave special neighs/atom = 0
Neighbor list builds = 0
Dangerous builds = 0
  next a
  jump SELF loop
  displace_atoms atom2 move 0 -0.02 0
  run   1000
Neighbor list info ...
  update every 1 steps, delay 10 steps, check yes
  max neighbors/atom: 2000, page size: 100000
  master list distance cutoff = 2.8
  ghost atom cutoff = 2.8
  binsize = 1.4, bins = 29 29 29
  6 neighbor lists, perpetual/occasional/extra = 5 1 0
  (1) pair lj/expand/twopiece, perpetual, skip from (6)
      attributes: half, newton on
      pair build: skip
      stencil: none
      bin: none
  (2) pair soft/shift, perpetual, skip from (6)
      attributes: half, newton on
      pair build: skip
      stencil: none
      bin: none
  (3) pair zero, perpetual, skip from (6)
      attributes: half, newton on
      pair build: skip
      stencil: none
      bin: none
  (4) pair morse, perpetual, skip from (6)
      attributes: half, newton on
      pair build: skip
      stencil: none
      bin: none
  (5) compute pair/local, occasional, copy from (6)
      attributes: half, newton on
      pair build: copy
      stencil: none
      bin: none
  (6) neighbor class addition, perpetual
      attributes: half, newton on
      pair build: half/bin/newton
      stencil: half/bin/3d/newton
      bin: standard
Per MPI rank memory allocation (min/avg/max) = 9.201 | 9.201 | 9.201 Mbytes
Step Temp E_pair E_mol TotEng Press 
   23000            0 -0.00058601986            0 -0.00058601986 -3.6615503e-08 
   23200            0 -0.00058601986            0 -0.00058601986 -3.6615503e-08 
   23400            0 -0.00058601986            0 -0.00058601986 -3.6615503e-08 
   23600            0 -0.00058601986            0 -0.00058601986 -3.6615503e-08 
   23800            0 -0.00058601986            0 -0.00058601986 -3.6615503e-08 
   24000            0 -0.00058601986            0 -0.00058601986 -3.6615503e-08 
Loop time of 0.00398517 on 1 procs for 1000 steps with 2 atoms

Performance: 21680398.780 tau/day, 250930.541 timesteps/s
0.0% CPU use with 1 MPI tasks x 1 OpenMP threads

MPI task timing breakdown:
Section |  min time  |  avg time  |  max time  |%varavg| %total
---------------------------------------------------------------
Pair    | 0.000489   | 0.000489   | 0.000489   |   0.0 | 12.27
Bond    | 0.00029898 | 0.00029898 | 0.00029898 |   0.0 |  7.50
Neigh   | 0          | 0          | 0          |   0.0 |  0.00
Comm    | 0.00053191 | 0.00053191 | 0.00053191 |   0.0 | 13.35
Output  | 0.0012946  | 0.0012946  | 0.0012946  |   0.0 | 32.49
Modify  | 0.00051785 | 0.00051785 | 0.00051785 |   0.0 | 12.99
Other   |            | 0.0008528  |            |       | 21.40

Nlocal:    2 ave 2 max 2 min
Histogram: 1 0 0 0 0 0 0 0 0 0
Nghost:    0 ave 0 max 0 min
Histogram: 1 0 0 0 0 0 0 0 0 0
Neighs:    1 ave 1 max 1 min
Histogram: 1 0 0 0 0 0 0 0 0 0

Total # of neighbors = 1
Ave neighs/atom = 0.5
Ave special neighs/atom = 0
Neighbor list builds = 0
Dangerous builds = 0
  next a
  jump SELF loop
  displace_atoms atom2 move 0 -0.02 0
  run   1000
Neighbor list info ...
  update every 1 steps, delay 10 steps, check yes
  max neighbors/atom: 2000, page size: 100000
  master list distance cutoff = 2.8
  ghost atom cutoff = 2.8
  binsize = 1.4, bins = 29 29 29
  6 neighbor lists, perpetual/occasional/extra = 5 1 0
  (1) pair lj/expand/twopiece, perpetual, skip from (6)
      attributes: half, newton on
      pair build: skip
      stencil: none
      bin: none
  (2) pair soft/shift, perpetual, skip from (6)
      attributes: half, newton on
      pair build: skip
      stencil: none
      bin: none
  (3) pair zero, perpetual, skip from (6)
      attributes: half, newton on
      pair build: skip
      stencil: none
      bin: none
  (4) pair morse, perpetual, skip from (6)
      attributes: half, newton on
      pair build: skip
      stencil: none
      bin: none
  (5) compute pair/local, occasional, copy from (6)
      attributes: half, newton on
      pair build: copy
      stencil: none
      bin: none
  (6) neighbor class addition, perpetual
      attributes: half, newton on
      pair build: half/bin/newton
      stencil: half/bin/3d/newton
      bin: standard
Per MPI rank memory allocation (min/avg/max) = 9.201 | 9.201 | 9.201 Mbytes
Step Temp E_pair E_mol TotEng Press 
   24000            0 -0.00062360153            0 -0.00062360153 -3.8962936e-08 
   24200            0 -0.00062360153            0 -0.00062360153 -3.8962936e-08 
   24400            0 -0.00062360153            0 -0.00062360153 -3.8962936e-08 
   24600            0 -0.00062360153            0 -0.00062360153 -3.8962936e-08 
   24800            0 -0.00062360153            0 -0.00062360153 -3.8962936e-08 
   25000            0 -0.00062360153            0 -0.00062360153 -3.8962936e-08 
Loop time of 0.00388598 on 1 procs for 1000 steps with 2 atoms

Performance: 22233748.426 tau/day, 257335.051 timesteps/s
0.0% CPU use with 1 MPI tasks x 1 OpenMP threads

MPI task timing breakdown:
Section |  min time  |  avg time  |  max time  |%varavg| %total
---------------------------------------------------------------
Pair    | 0.00050187 | 0.00050187 | 0.00050187 |   0.0 | 12.91
Bond    | 0.00029826 | 0.00029826 | 0.00029826 |   0.0 |  7.68
Neigh   | 0          | 0          | 0          |   0.0 |  0.00
Comm    | 0.00053144 | 0.00053144 | 0.00053144 |   0.0 | 13.68
Output  | 0.0012183  | 0.0012183  | 0.0012183  |   0.0 | 31.35
Modify  | 0.00053978 | 0.00053978 | 0.00053978 |   0.0 | 13.89
Other   |            | 0.0007963  |            |       | 20.49

Nlocal:    2 ave 2 max 2 min
Histogram: 1 0 0 0 0 0 0 0 0 0
Nghost:    0 ave 0 max 0 min
Histogram: 1 0 0 0 0 0 0 0 0 0
Neighs:    1 ave 1 max 1 min
Histogram: 1 0 0 0 0 0 0 0 0 0

Total # of neighbors = 1
Ave neighs/atom = 0.5
Ave special neighs/atom = 0
Neighbor list builds = 0
Dangerous builds = 0
  next a
  jump SELF loop
  displace_atoms atom2 move 0 -0.02 0
  run   1000
Neighbor list info ...
  update every 1 steps, delay 10 steps, check yes
  max neighbors/atom: 2000, page size: 100000
  master list distance cutoff = 2.8
  ghost atom cutoff = 2.8
  binsize = 1.4, bins = 29 29 29
  6 neighbor lists, perpetual/occasional/extra = 5 1 0
  (1) pair lj/expand/twopiece, perpetual, skip from (6)
      attributes: half, newton on
      pair build: skip
      stencil: none
      bin: none
  (2) pair soft/shift, perpetual, skip from (6)
      attributes: half, newton on
      pair build: skip
      stencil: none
      bin: none
  (3) pair zero, perpetual, skip from (6)
      attributes: half, newton on
      pair build: skip
      stencil: none
      bin: none
  (4) pair morse, perpetual, skip from (6)
      attributes: half, newton on
      pair build: skip
      stencil: none
      bin: none
  (5) compute pair/local, occasional, copy from (6)
      attributes: half, newton on
      pair build: copy
      stencil: none
      bin: none
  (6) neighbor class addition, perpetual
      attributes: half, newton on
      pair build: half/bin/newton
      stencil: half/bin/3d/newton
      bin: standard
Per MPI rank memory allocation (min/avg/max) = 9.201 | 9.201 | 9.201 Mbytes
Step Temp E_pair E_mol TotEng Press 
   25000            0 -0.00066402458            0 -0.00066402458 -4.1487748e-08 
   25200            0 -0.00066402458            0 -0.00066402458 -4.1487748e-08 
   25400            0 -0.00066402458            0 -0.00066402458 -4.1487748e-08 
   25600            0 -0.00066402458            0 -0.00066402458 -4.1487748e-08 
   25800            0 -0.00066402458            0 -0.00066402458 -4.1487748e-08 
   26000            0 -0.00066402458            0 -0.00066402458 -4.1487748e-08 
Loop time of 0.00388503 on 1 procs for 1000 steps with 2 atoms

Performance: 22239206.235 tau/day, 257398.220 timesteps/s
0.0% CPU use with 1 MPI tasks x 1 OpenMP threads

MPI task timing breakdown:
Section |  min time  |  avg time  |  max time  |%varavg| %total
---------------------------------------------------------------
Pair    | 0.00049853 | 0.00049853 | 0.00049853 |   0.0 | 12.83
Bond    | 0.00028944 | 0.00028944 | 0.00028944 |   0.0 |  7.45
Neigh   | 0          | 0          | 0          |   0.0 |  0.00
Comm    | 0.00051713 | 0.00051713 | 0.00051713 |   0.0 | 13.31
Output  | 0.0012097  | 0.0012097  | 0.0012097  |   0.0 | 31.14
Modify  | 0.0005362  | 0.0005362  | 0.0005362  |   0.0 | 13.80
Other   |            | 0.000834   |            |       | 21.47

Nlocal:    2 ave 2 max 2 min
Histogram: 1 0 0 0 0 0 0 0 0 0
Nghost:    0 ave 0 max 0 min
Histogram: 1 0 0 0 0 0 0 0 0 0
Neighs:    1 ave 1 max 1 min
Histogram: 1 0 0 0 0 0 0 0 0 0

Total # of neighbors = 1
Ave neighs/atom = 0.5
Ave special neighs/atom = 0
Neighbor list builds = 0
Dangerous builds = 0
  next a
  jump SELF loop
  displace_atoms atom2 move 0 -0.02 0
  run   1000
Neighbor list info ...
  update every 1 steps, delay 10 steps, check yes
  max neighbors/atom: 2000, page size: 100000
  master list distance cutoff = 2.8
  ghost atom cutoff = 2.8
  binsize = 1.4, bins = 29 29 29
  6 neighbor lists, perpetual/occasional/extra = 5 1 0
  (1) pair lj/expand/twopiece, perpetual, skip from (6)
      attributes: half, newton on
      pair build: skip
      stencil: none
      bin: none
  (2) pair soft/shift, perpetual, skip from (6)
      attributes: half, newton on
      pair build: skip
      stencil: none
      bin: none
  (3) pair zero, perpetual, skip from (6)
      attributes: half, newton on
      pair build: skip
      stencil: none
      bin: none
  (4) pair morse, perpetual, skip from (6)
      attributes: half, newton on
      pair build: skip
      stencil: none
      bin: none
  (5) compute pair/local, occasional, copy from (6)
      attributes: half, newton on
      pair build: copy
      stencil: none
      bin: none
  (6) neighbor class addition, perpetual
      attributes: half, newton on
      pair build: half/bin/newton
      stencil: half/bin/3d/newton
      bin: standard
Per MPI rank memory allocation (min/avg/max) = 9.201 | 9.201 | 9.201 Mbytes
Step Temp E_pair E_mol TotEng Press 
   26000            0 -0.00070753708            0 -0.00070753708 -4.4205412e-08 
   26200            0 -0.00070753708            0 -0.00070753708 -4.4205412e-08 
   26400            0 -0.00070753708            0 -0.00070753708 -4.4205412e-08 
   26600            0 -0.00070753708            0 -0.00070753708 -4.4205412e-08 
   26800            0 -0.00070753708            0 -0.00070753708 -4.4205412e-08 
   27000            0 -0.00070753708            0 -0.00070753708 -4.4205412e-08 
Loop time of 0.00396299 on 1 procs for 1000 steps with 2 atoms

Performance: 21801700.493 tau/day, 252334.496 timesteps/s
0.0% CPU use with 1 MPI tasks x 1 OpenMP threads

MPI task timing breakdown:
Section |  min time  |  avg time  |  max time  |%varavg| %total
---------------------------------------------------------------
Pair    | 0.00048256 | 0.00048256 | 0.00048256 |   0.0 | 12.18
Bond    | 0.00029445 | 0.00029445 | 0.00029445 |   0.0 |  7.43
[...]
  234200            0 -0.00022242963            0 -0.00022242963 -1.3900305e-08 
  234400            0 -0.00022242963            0 -0.00022242963 -1.3900305e-08 
  234600            0 -0.00022242963            0 -0.00022242963 -1.3900305e-08 
  234800            0 -0.00022242963            0 -0.00022242963 -1.3900305e-08 
  235000            0 -0.00022242963            0 -0.00022242963 -1.3900305e-08 
Loop time of 0.00373816 on 1 procs for 1000 steps with 2 atoms

Performance: 23112945.060 tau/day, 267510.938 timesteps/s
0.0% CPU use with 1 MPI tasks x 1 OpenMP threads

MPI task timing breakdown:
Section |  min time  |  avg time  |  max time  |%varavg| %total
---------------------------------------------------------------
Pair    | 0.00047207 | 0.00047207 | 0.00047207 |   0.0 | 12.63
Bond    | 0.00029516 | 0.00029516 | 0.00029516 |   0.0 |  7.90
Neigh   | 0          | 0          | 0          |   0.0 |  0.00
Comm    | 0.00052714 | 0.00052714 | 0.00052714 |   0.0 | 14.10
Output  | 0.0010896  | 0.0010896  | 0.0010896  |   0.0 | 29.15
Modify  | 0.00051713 | 0.00051713 | 0.00051713 |   0.0 | 13.83
Other   |            | 0.0008371  |            |       | 22.39

Nlocal:    2 ave 2 max 2 min
Histogram: 1 0 0 0 0 0 0 0 0 0
Nghost:    0 ave 0 max 0 min
Histogram: 1 0 0 0 0 0 0 0 0 0
Neighs:    1 ave 1 max 1 min
Histogram: 1 0 0 0 0 0 0 0 0 0

Total # of neighbors = 1
Ave neighs/atom = 0.5
Ave special neighs/atom = 0
Neighbor list builds = 0
Dangerous builds = 0
  next a
  jump SELF loop
  displace_atoms atom2 move 0 -0.02 0
  run   1000
Neighbor list info ...
  update every 1 steps, delay 10 steps, check yes
  max neighbors/atom: 2000, page size: 100000
  master list distance cutoff = 2.8
  ghost atom cutoff = 2.8
  binsize = 1.4, bins = 29 29 29
  6 neighbor lists, perpetual/occasional/extra = 5 1 0
  (1) pair lj/expand/twopiece, perpetual, skip from (6)
      attributes: half, newton on
      pair build: skip
      stencil: none
      bin: none
  (2) pair soft/shift, perpetual, skip from (6)
      attributes: half, newton on
      pair build: skip
      stencil: none
      bin: none
  (3) pair zero, perpetual, skip from (6)
      attributes: half, newton on
      pair build: skip
      stencil: none
      bin: none
  (4) pair morse, perpetual, skip from (6)
      attributes: half, newton on
      pair build: skip
      stencil: none
      bin: none
  (5) compute pair/local, occasional, copy from (6)
      attributes: half, newton on
      pair build: copy
      stencil: none
      bin: none
  (6) neighbor class addition, perpetual
      attributes: half, newton on
      pair build: half/bin/newton
      stencil: half/bin/3d/newton
      bin: standard
Per MPI rank memory allocation (min/avg/max) = 9.201 | 9.201 | 9.201 Mbytes
Step Temp E_pair E_mol TotEng Press 
  235000            0 -0.00021107518            0 -0.00021107518 -1.3190806e-08 
  235200            0 -0.00021107518            0 -0.00021107518 -1.3190806e-08 
  235400            0 -0.00021107518            0 -0.00021107518 -1.3190806e-08 
  235600            0 -0.00021107518            0 -0.00021107518 -1.3190806e-08 
  235800            0 -0.00021107518            0 -0.00021107518 -1.3190806e-08 
  236000            0 -0.00021107518            0 -0.00021107518 -1.3190806e-08 
Loop time of 0.00374818 on 1 procs for 1000 steps with 2 atoms

Performance: 23051196.845 tau/day, 266796.260 timesteps/s
0.0% CPU use with 1 MPI tasks x 1 OpenMP threads

MPI task timing breakdown:
Section |  min time  |  avg time  |  max time  |%varavg| %total
---------------------------------------------------------------
Pair    | 0.00047088 | 0.00047088 | 0.00047088 |   0.0 | 12.56
Bond    | 0.00030208 | 0.00030208 | 0.00030208 |   0.0 |  8.06
Neigh   | 0          | 0          | 0          |   0.0 |  0.00
Comm    | 0.00054455 | 0.00054455 | 0.00054455 |   0.0 | 14.53
Output  | 0.0011008  | 0.0011008  | 0.0011008  |   0.0 | 29.37
Modify  | 0.00051069 | 0.00051069 | 0.00051069 |   0.0 | 13.63
Other   |            | 0.0008192  |            |       | 21.86

Nlocal:    2 ave 2 max 2 min
Histogram: 1 0 0 0 0 0 0 0 0 0
Nghost:    0 ave 0 max 0 min
Histogram: 1 0 0 0 0 0 0 0 0 0
Neighs:    1 ave 1 max 1 min
Histogram: 1 0 0 0 0 0 0 0 0 0

Total # of neighbors = 1
Ave neighs/atom = 0.5
Ave special neighs/atom = 0
Neighbor list builds = 0
Dangerous builds = 0
  next a
  jump SELF loop
  displace_atoms atom2 move 0 -0.02 0
  run   1000
Neighbor list info ...
  update every 1 steps, delay 10 steps, check yes
  max neighbors/atom: 2000, page size: 100000
  master list distance cutoff = 2.8
  ghost atom cutoff = 2.8
  binsize = 1.4, bins = 29 29 29
  6 neighbor lists, perpetual/occasional/extra = 5 1 0
  (1) pair lj/expand/twopiece, perpetual, skip from (6)
      attributes: half, newton on
      pair build: skip
      stencil: none
      bin: none
  (2) pair soft/shift, perpetual, skip from (6)
      attributes: half, newton on
      pair build: skip
      stencil: none
      bin: none
  (3) pair zero, perpetual, skip from (6)
      attributes: half, newton on
      pair build: skip
      stencil: none
      bin: none
  (4) pair morse, perpetual, skip from (6)
      attributes: half, newton on
      pair build: skip
      stencil: none
      bin: none
  (5) compute pair/local, occasional, copy from (6)
      attributes: half, newton on
      pair build: copy
      stencil: none
      bin: none
  (6) neighbor class addition, perpetual
      attributes: half, newton on
      pair build: half/bin/newton
      stencil: half/bin/3d/newton
      bin: standard
Per MPI rank memory allocation (min/avg/max) = 9.201 | 9.201 | 9.201 Mbytes
Step Temp E_pair E_mol TotEng Press 
  236000            0 -0.00020039117            0 -0.00020039117 -1.2523193e-08 
  236200            0 -0.00020039117            0 -0.00020039117 -1.2523193e-08 
  236400            0 -0.00020039117            0 -0.00020039117 -1.2523193e-08 
  236600            0 -0.00020039117            0 -0.00020039117 -1.2523193e-08 
  236800            0 -0.00020039117            0 -0.00020039117 -1.2523193e-08 
  237000            0 -0.00020039117            0 -0.00020039117 -1.2523193e-08 
Loop time of 0.00374699 on 1 procs for 1000 steps with 2 atoms

Performance: 23058530.517 tau/day, 266881.140 timesteps/s
0.0% CPU use with 1 MPI tasks x 1 OpenMP threads

MPI task timing breakdown:
Section |  min time  |  avg time  |  max time  |%varavg| %total
---------------------------------------------------------------
Pair    | 0.00047874 | 0.00047874 | 0.00047874 |   0.0 | 12.78
Bond    | 0.00029659 | 0.00029659 | 0.00029659 |   0.0 |  7.92
Neigh   | 0          | 0          | 0          |   0.0 |  0.00
Comm    | 0.00052595 | 0.00052595 | 0.00052595 |   0.0 | 14.04
Output  | 0.0011015  | 0.0011015  | 0.0011015  |   0.0 | 29.40
Modify  | 0.00050831 | 0.00050831 | 0.00050831 |   0.0 | 13.57
Other   |            | 0.0008359  |            |       | 22.31

Nlocal:    2 ave 2 max 2 min
Histogram: 1 0 0 0 0 0 0 0 0 0
Nghost:    0 ave 0 max 0 min
Histogram: 1 0 0 0 0 0 0 0 0 0
Neighs:    1 ave 1 max 1 min
Histogram: 1 0 0 0 0 0 0 0 0 0

Total # of neighbors = 1
Ave neighs/atom = 0.5
Ave special neighs/atom = 0
Neighbor list builds = 0
Dangerous builds = 0
  next a
  jump SELF loop
  displace_atoms atom2 move 0 -0.02 0
  run   1000
Neighbor list info ...
  update every 1 steps, delay 10 steps, check yes
  max neighbors/atom: 2000, page size: 100000
  master list distance cutoff = 2.8
  ghost atom cutoff = 2.8
  binsize = 1.4, bins = 29 29 29
  6 neighbor lists, perpetual/occasional/extra = 5 1 0
  (1) pair lj/expand/twopiece, perpetual, skip from (6)
      attributes: half, newton on
      pair build: skip
      stencil: none
      bin: none
  (2) pair soft/shift, perpetual, skip from (6)
      attributes: half, newton on
      pair build: skip
      stencil: none
      bin: none
  (3) pair zero, perpetual, skip from (6)
      attributes: half, newton on
      pair build: skip
      stencil: none
      bin: none
  (4) pair morse, perpetual, skip from (6)
      attributes: half, newton on
      pair build: skip
      stencil: none
      bin: none
  (5) compute pair/local, occasional, copy from (6)
      attributes: half, newton on
      pair build: copy
      stencil: none
      bin: none
  (6) neighbor class addition, perpetual
      attributes: half, newton on
      pair build: half/bin/newton
      stencil: half/bin/3d/newton
      bin: standard
Per MPI rank memory allocation (min/avg/max) = 9.201 | 9.201 | 9.201 Mbytes
Step Temp E_pair E_mol TotEng Press 
  237000            0 -0.00019033276            0 -0.00019033276 -1.1894665e-08 
  237200            0 -0.00019033276            0 -0.00019033276 -1.1894665e-08 
  237400            0 -0.00019033276            0 -0.00019033276 -1.1894665e-08 
  237600            0 -0.00019033276            0 -0.00019033276 -1.1894665e-08 
  237800            0 -0.00019033276            0 -0.00019033276 -1.1894665e-08 
  238000            0 -0.00019033276            0 -0.00019033276 -1.1894665e-08 
Loop time of 0.00379109 on 1 procs for 1000 steps with 2 atoms

Performance: 22790256.311 tau/day, 263776.115 timesteps/s
0.0% CPU use with 1 MPI tasks x 1 OpenMP threads

MPI task timing breakdown:
Section |  min time  |  avg time  |  max time  |%varavg| %total
---------------------------------------------------------------
Pair    | 0.00047421 | 0.00047421 | 0.00047421 |   0.0 | 12.51
Bond    | 0.00028634 | 0.00028634 | 0.00028634 |   0.0 |  7.55
Neigh   | 0          | 0          | 0          |   0.0 |  0.00
Comm    | 0.00053239 | 0.00053239 | 0.00053239 |   0.0 | 14.04
Output  | 0.0011196  | 0.0011196  | 0.0011196  |   0.0 | 29.53
Modify  | 0.00053477 | 0.00053477 | 0.00053477 |   0.0 | 14.11
Other   |            | 0.0008438  |            |       | 22.26

Nlocal:    2 ave 2 max 2 min
Histogram: 1 0 0 0 0 0 0 0 0 0
Nghost:    0 ave 0 max 0 min
Histogram: 1 0 0 0 0 0 0 0 0 0
Neighs:    1 ave 1 max 1 min
Histogram: 1 0 0 0 0 0 0 0 0 0

Total # of neighbors = 1
Ave neighs/atom = 0.5
Ave special neighs/atom = 0
Neighbor list builds = 0
Dangerous builds = 0
  next a
  jump SELF loop
  displace_atoms atom2 move 0 -0.02 0
  run   1000
Neighbor list info ...
  update every 1 steps, delay 10 steps, check yes
  max neighbors/atom: 2000, page size: 100000
  master list distance cutoff = 2.8
  ghost atom cutoff = 2.8
  binsize = 1.4, bins = 29 29 29
  6 neighbor lists, perpetual/occasional/extra = 5 1 0
  (1) pair lj/expand/twopiece, perpetual, skip from (6)
      attributes: half, newton on
      pair build: skip
      stencil: none
      bin: none
  (2) pair soft/shift, perpetual, skip from (6)
      attributes: half, newton on
      pair build: skip
      stencil: none
      bin: none
  (3) pair zero, perpetual, skip from (6)
      attributes: half, newton on
      pair build: skip
      stencil: none
      bin: none
  (4) pair morse, perpetual, skip from (6)
      attributes: half, newton on
      pair build: skip
      stencil: none
      bin: none
  (5) compute pair/local, occasional, copy from (6)
      attributes: half, newton on
      pair build: copy
      stencil: none
      bin: none
  (6) neighbor class addition, perpetual
      attributes: half, newton on
      pair build: half/bin/newton
      stencil: half/bin/3d/newton
      bin: standard
Per MPI rank memory allocation (min/avg/max) = 9.201 | 9.201 | 9.201 Mbytes
Step Temp E_pair E_mol TotEng Press 
  238000            0 -0.00018085842            0 -0.00018085842 -1.1302629e-08 
  238200            0 -0.00018085842            0 -0.00018085842 -1.1302629e-08 
  238400            0 -0.00018085842            0 -0.00018085842 -1.1302629e-08 
  238600            0 -0.00018085842            0 -0.00018085842 -1.1302629e-08 
  238800            0 -0.00018085842            0 -0.00018085842 -1.1302629e-08 
  239000            0 -0.00018085842            0 -0.00018085842 -1.1302629e-08 
Loop time of 0.0037539 on 1 procs for 1000 steps with 2 atoms

Performance: 23016060.057 tau/day, 266389.584 timesteps/s
416.2% CPU use with 1 MPI tasks x 1 OpenMP threads

MPI task timing breakdown:
Section |  min time  |  avg time  |  max time  |%varavg| %total
---------------------------------------------------------------
Pair    | 0.00048566 | 0.00048566 | 0.00048566 |   0.0 | 12.94
Bond    | 0.00029445 | 0.00029445 | 0.00029445 |   0.0 |  7.84
Neigh   | 0          | 0          | 0          |   0.0 |  0.00
Comm    | 0.00051332 | 0.00051332 | 0.00051332 |   0.0 | 13.67
Output  | 0.0010953  | 0.0010953  | 0.0010953  |   0.0 | 29.18
Modify  | 0.00053644 | 0.00053644 | 0.00053644 |   0.0 | 14.29
Other   |            | 0.0008287  |            |       | 22.08

Nlocal:    2 ave 2 max 2 min
Histogram: 1 0 0 0 0 0 0 0 0 0
Nghost:    0 ave 0 max 0 min
Histogram: 1 0 0 0 0 0 0 0 0 0
Neighs:    1 ave 1 max 1 min
Histogram: 1 0 0 0 0 0 0 0 0 0

Total # of neighbors = 1
Ave neighs/atom = 0.5
Ave special neighs/atom = 0
Neighbor list builds = 0
Dangerous builds = 0
  next a
  jump SELF loop
  displace_atoms atom2 move 0 -0.02 0
  run   1000
Neighbor list info ...
  update every 1 steps, delay 10 steps, check yes
  max neighbors/atom: 2000, page size: 100000
  master list distance cutoff = 2.8
  ghost atom cutoff = 2.8
  binsize = 1.4, bins = 29 29 29
  6 neighbor lists, perpetual/occasional/extra = 5 1 0
  (1) pair lj/expand/twopiece, perpetual, skip from (6)
      attributes: half, newton on
      pair build: skip
      stencil: none
      bin: none
  (2) pair soft/shift, perpetual, skip from (6)
      attributes: half, newton on
      pair build: skip
      stencil: none
      bin: none
  (3) pair zero, perpetual, skip from (6)
      attributes: half, newton on
      pair build: skip
      stencil: none
      bin: none
  (4) pair morse, perpetual, skip from (6)
      attributes: half, newton on
      pair build: skip
      stencil: none
      bin: none
  (5) compute pair/local, occasional, copy from (6)
      attributes: half, newton on
      pair build: copy
      stencil: none
      bin: none
  (6) neighbor class addition, perpetual
      attributes: half, newton on
      pair build: half/bin/newton
      stencil: half/bin/3d/newton
      bin: standard
Per MPI rank memory allocation (min/avg/max) = 9.201 | 9.201 | 9.201 Mbytes
Step Temp E_pair E_mol TotEng Press 
  239000            0 -0.00017192971            0 -0.00017192971 -1.0744683e-08 
  239200            0 -0.00017192971            0 -0.00017192971 -1.0744683e-08 
  239400            0 -0.00017192971            0 -0.00017192971 -1.0744683e-08 
  239600            0 -0.00017192971            0 -0.00017192971 -1.0744683e-08 
  239800            0 -0.00017192971            0 -0.00017192971 -1.0744683e-08 
  240000            0 -0.00017192971            0 -0.00017192971 -1.0744683e-08 
Loop time of 0.00383711 on 1 procs for 1000 steps with 2 atoms

Performance: 22516954.492 tau/day, 260612.899 timesteps/s
0.0% CPU use with 1 MPI tasks x 1 OpenMP threads

MPI task timing breakdown:
Section |  min time  |  avg time  |  max time  |%varavg| %total
---------------------------------------------------------------
Pair    | 0.00049591 | 0.00049591 | 0.00049591 |   0.0 | 12.92
Bond    | 0.00030231 | 0.00030231 | 0.00030231 |   0.0 |  7.88
Neigh   | 0          | 0          | 0          |   0.0 |  0.00
Comm    | 0.000525   | 0.000525   | 0.000525   |   0.0 | 13.68
Output  | 0.0011423  | 0.0011423  | 0.0011423  |   0.0 | 29.77
Modify  | 0.00052142 | 0.00052142 | 0.00052142 |   0.0 | 13.59
Other   |            | 0.0008502  |            |       | 22.16

Nlocal:    2 ave 2 max 2 min
Histogram: 1 0 0 0 0 0 0 0 0 0
Nghost:    0 ave 0 max 0 min
Histogram: 1 0 0 0 0 0 0 0 0 0
Neighs:    1 ave 1 max 1 min
Histogram: 1 0 0 0 0 0 0 0 0 0

Total # of neighbors = 1
Ave neighs/atom = 0.5
Ave special neighs/atom = 0
Neighbor list builds = 0
Dangerous builds = 0
  next a
  jump SELF loop
  displace_atoms atom2 move 0 -0.02 0
  run   1000
Neighbor list info ...
  update every 1 steps, delay 10 steps, check yes
  max neighbors/atom: 2000, page size: 100000
  master list distance cutoff = 2.8
  ghost atom cutoff = 2.8
  binsize = 1.4, bins = 29 29 29
  6 neighbor lists, perpetual/occasional/extra = 5 1 0
  (1) pair lj/expand/twopiece, perpetual, skip from (6)
      attributes: half, newton on
      pair build: skip
      stencil: none
      bin: none
  (2) pair soft/shift, perpetual, skip from (6)
      attributes: half, newton on
      pair build: skip
      stencil: none
      bin: none
  (3) pair zero, perpetual, skip from (6)
      attributes: half, newton on
      pair build: skip
      stencil: none
      bin: none
  (4) pair morse, perpetual, skip from (6)
      attributes: half, newton on
      pair build: skip
      stencil: none
      bin: none
  (5) compute pair/local, occasional, copy from (6)
      attributes: half, newton on
      pair build: copy
      stencil: none
      bin: none
  (6) neighbor class addition, perpetual
      attributes: half, newton on
      pair build: half/bin/newton
      stencil: half/bin/3d/newton
      bin: standard
Per MPI rank memory allocation (min/avg/max) = 9.201 | 9.201 | 9.201 Mbytes
Step Temp E_pair E_mol TotEng Press 
  240000            0 -0.00016351103            0 -0.00016351103 -1.0218604e-08 
  240200            0 -0.00016351103            0 -0.00016351103 -1.0218604e-08 
  240400            0 -0.00016351103            0 -0.00016351103 -1.0218604e-08 
  240600            0 -0.00016351103            0 -0.00016351103 -1.0218604e-08 
  240800            0 -0.00016351103            0 -0.00016351103 -1.0218604e-08 
  241000            0 -0.00016351103            0 -0.00016351103 -1.0218604e-08 
Loop time of 0.00379205 on 1 procs for 1000 steps with 2 atoms

Performance: 22784524.715 tau/day, 263709.777 timesteps/s
0.0% CPU use with 1 MPI tasks x 1 OpenMP threads

MPI task timing breakdown:
Section |  min time  |  avg time  |  max time  |%varavg| %total
---------------------------------------------------------------
Pair    | 0.00048447 | 0.00048447 | 0.00048447 |   0.0 | 12.78
Bond    | 0.00029469 | 0.00029469 | 0.00029469 |   0.0 |  7.77
Neigh   | 0          | 0          | 0          |   0.0 |  0.00
Comm    | 0.00054312 | 0.00054312 | 0.00054312 |   0.0 | 14.32
Output  | 0.0011365  | 0.0011365  | 0.0011365  |   0.0 | 29.97
Modify  | 0.00050879 | 0.00050879 | 0.00050879 |   0.0 | 13.42
Other   |            | 0.0008245  |            |       | 21.74

Nlocal:    2 ave 2 max 2 min
Histogram: 1 0 0 0 0 0 0 0 0 0
Nghost:    0 ave 0 max 0 min
Histogram: 1 0 0 0 0 0 0 0 0 0
Neighs:    1 ave 1 max 1 min
Histogram: 1 0 0 0 0 0 0 0 0 0

Total # of neighbors = 1
Ave neighs/atom = 0.5
Ave special neighs/atom = 0
Neighbor list builds = 0
Dangerous builds = 0
  next a
  jump SELF loop


# ----------------- Run Section -----------------

# The lines above define the system you want to simulate.
# What you do next is up to you.
# Typically a user would minimize and equilibrate
# the system using commands similar to the following:
#  ----   examples   ----
#
#  -- minimize --
# minimize 1.0e-5 1.0e-7 1000 10000
# (Note: Some fixes, for example "shake", interfere with the minimize command,
#        You can use the "unfix" command to disable them before minimization.)
#  -- declare time step for normal MD --
# timestep 1.0
#  -- run at constant pressure (Nose-Hoover)--
# fix   fxnpt all npt temp 300.0 300.0 100.0 iso 1.0 1.0 1000.0 drag 1.0
#  -- ALTERNATELY, run at constant volume (Nose-Hoover) --
# fix   fxnvt all nvt temp 300.0 300.0 500.0 tchain 1
#  -- ALTERNATELY, run at constant volume using Langevin dynamics. --
#  -- (This is good for sparse CG polymers in implicit solvent.)   --
# fix fxLAN all langevin 300.0 300.0 5000 48279
# fix fxNVE all nve  #(<--needed by fix langevin)
#  -- Now, finally run the simulation --
# run   50000
#  ---- (end of examples) ----

Total wall time: 0:00:01
