LAMMPS (7 Aug 2019)
OMP_NUM_THREADS environment is not set. Defaulting to 1 thread. (src/comm.cpp:93)
  using 1 OpenMP thread(s) per MPI task
Reading data file ...
  orthogonal box = (-20 -20 -20) to (20 20 20)
  1 by 1 by 1 MPI processor grid
  reading atoms ...
  2 atoms
Finding 1-2 1-3 1-4 neighbors ...
  special bond factors lj:   0          0          0         
  special bond factors coul: 0          0          0         
  0 = max # of 1-2 neighbors
  0 = max # of 1-3 neighbors
  0 = max # of 1-4 neighbors
  1 = max # of special neighbors
  special bonds CPU = 0.000112 secs
  read_data CPU = 0.00492 secs
1 atoms in group atom1
1 atoms in group atom2
Neighbor list info ...
  update every 1 steps, delay 10 steps, check yes
  max neighbors/atom: 2000, page size: 100000
  master list distance cutoff = 2.8
  ghost atom cutoff = 2.8
  binsize = 1.4, bins = 29 29 29
  6 neighbor lists, perpetual/occasional/extra = 5 1 0
  (1) pair lj/expand/twopiece, perpetual, skip from (6)
      attributes: half, newton on
      pair build: skip
      stencil: none
      bin: none
  (2) pair soft/shift, perpetual, skip from (6)
      attributes: half, newton on
      pair build: skip
      stencil: none
      bin: none
  (3) pair zero, perpetual, skip from (6)
      attributes: half, newton on
      pair build: skip
      stencil: none
      bin: none
  (4) pair morse, perpetual, skip from (6)
      attributes: half, newton on
      pair build: skip
      stencil: none
      bin: none
  (5) compute pair/local, occasional, copy from (6)
      attributes: half, newton on
      pair build: copy
      stencil: none
      bin: none
  (6) neighbor class addition, perpetual
      attributes: half, newton on
      pair build: half/bin/newton
      stencil: half/bin/3d/newton
      bin: standard
Setting up Verlet run ...
  Unit style    : lj
  Current step  : 0
  Time step     : 0.001
Per MPI rank memory allocation (min/avg/max) = 8.333 | 8.333 | 8.333 Mbytes
Step Temp E_pair E_mol TotEng Press 
       0            0 -0.00048816204            0 -0.00048816204 -3.0502677e-08 
     200            0 -0.00048816204            0 -0.00048816204 -3.0502677e-08 
     400            0 -0.00048816204            0 -0.00048816204 -3.0502677e-08 
     600            0 -0.00048816204            0 -0.00048816204 -3.0502677e-08 
     800            0 -0.00048816204            0 -0.00048816204 -3.0502677e-08 
    1000            0 -0.00048816204            0 -0.00048816204 -3.0502677e-08 
Loop time of 0.015701 on 1 procs for 1000 steps with 2 atoms

Performance: 5502834.216 tau/day, 63690.211 timesteps/s
0.0% CPU use with 1 MPI tasks x 1 OpenMP threads

MPI task timing breakdown:
Section |  min time  |  avg time  |  max time  |%varavg| %total
---------------------------------------------------------------
Pair    | 0.001766   | 0.001766   | 0.001766   |   0.0 | 11.25
Bond    | 0.001407   | 0.001407   | 0.001407   |   0.0 |  8.96
Neigh   | 0          | 0          | 0          |   0.0 |  0.00
Comm    | 0.002844   | 0.002844   | 0.002844   |   0.0 | 18.11
Output  | 0.002647   | 0.002647   | 0.002647   |   0.0 | 16.86
Modify  | 0.002668   | 0.002668   | 0.002668   |   0.0 | 16.99
Other   |            | 0.004369   |            |       | 27.83

Nlocal:    2 ave 2 max 2 min
Histogram: 1 0 0 0 0 0 0 0 0 0
Nghost:    0 ave 0 max 0 min
Histogram: 1 0 0 0 0 0 0 0 0 0
Neighs:    1 ave 1 max 1 min
Histogram: 1 0 0 0 0 0 0 0 0 0

Total # of neighbors = 1
Ave neighs/atom = 0.5
Ave special neighs/atom = 0
Neighbor list builds = 0
Dangerous builds = 0
Displacing atoms ...
Neighbor list info ...
  update every 1 steps, delay 10 steps, check yes
  max neighbors/atom: 2000, page size: 100000
  master list distance cutoff = 2.8
  ghost atom cutoff = 2.8
  binsize = 1.4, bins = 29 29 29
  6 neighbor lists, perpetual/occasional/extra = 5 1 0
  (1) pair lj/expand/twopiece, perpetual, skip from (6)
      attributes: half, newton on
      pair build: skip
      stencil: none
      bin: none
  (2) pair soft/shift, perpetual, skip from (6)
      attributes: half, newton on
      pair build: skip
      stencil: none
      bin: none
  (3) pair zero, perpetual, skip from (6)
      attributes: half, newton on
      pair build: skip
      stencil: none
      bin: none
  (4) pair morse, perpetual, skip from (6)
      attributes: half, newton on
      pair build: skip
      stencil: none
      bin: none
  (5) compute pair/local, occasional, copy from (6)
      attributes: half, newton on
      pair build: copy
      stencil: none
      bin: none
  (6) neighbor class addition, perpetual
      attributes: half, newton on
      pair build: half/bin/newton
      stencil: half/bin/3d/newton
      bin: standard
Setting up Verlet run ...
  Unit style    : lj
  Current step  : 1000
  Time step     : 0.001
Per MPI rank memory allocation (min/avg/max) = 9.201 | 9.201 | 9.201 Mbytes
Step Temp E_pair E_mol TotEng Press 
    1000            0 -0.000518497            0 -0.000518497 -3.2397657e-08 
    1200            0 -0.000518497            0 -0.000518497 -3.2397657e-08 
    1400            0 -0.000518497            0 -0.000518497 -3.2397657e-08 
    1600            0 -0.000518497            0 -0.000518497 -3.2397657e-08 
    1800            0 -0.000518497            0 -0.000518497 -3.2397657e-08 
    2000            0 -0.000518497            0 -0.000518497 -3.2397657e-08 
Loop time of 0.025909 on 1 procs for 1000 steps with 2 atoms

Performance: 3334748.548 tau/day, 38596.627 timesteps/s
120.6% CPU use with 1 MPI tasks x 1 OpenMP threads

MPI task timing breakdown:
Section |  min time  |  avg time  |  max time  |%varavg| %total
---------------------------------------------------------------
Pair    | 0.002433   | 0.002433   | 0.002433   |   0.0 |  9.39
Bond    | 0.001641   | 0.001641   | 0.001641   |   0.0 |  6.33
Neigh   | 0          | 0          | 0          |   0.0 |  0.00
Comm    | 0.003031   | 0.003031   | 0.003031   |   0.0 | 11.70
Output  | 0.005415   | 0.005415   | 0.005415   |   0.0 | 20.90
Modify  | 0.003417   | 0.003417   | 0.003417   |   0.0 | 13.19
Other   |            | 0.009972   |            |       | 38.49

Nlocal:    2 ave 2 max 2 min
Histogram: 1 0 0 0 0 0 0 0 0 0
Nghost:    0 ave 0 max 0 min
Histogram: 1 0 0 0 0 0 0 0 0 0
Neighs:    1 ave 1 max 1 min
Histogram: 1 0 0 0 0 0 0 0 0 0

Total # of neighbors = 1
Ave neighs/atom = 0.5
Ave special neighs/atom = 0
Neighbor list builds = 0
Dangerous builds = 0
Displacing atoms ...
Neighbor list info ...
  update every 1 steps, delay 10 steps, check yes
  max neighbors/atom: 2000, page size: 100000
  master list distance cutoff = 2.8
  ghost atom cutoff = 2.8
  binsize = 1.4, bins = 29 29 29
  6 neighbor lists, perpetual/occasional/extra = 5 1 0
  (1) pair lj/expand/twopiece, perpetual, skip from (6)
      attributes: half, newton on
      pair build: skip
      stencil: none
      bin: none
  (2) pair soft/shift, perpetual, skip from (6)
      attributes: half, newton on
      pair build: skip
      stencil: none
      bin: none
  (3) pair zero, perpetual, skip from (6)
      attributes: half, newton on
      pair build: skip
      stencil: none
      bin: none
  (4) pair morse, perpetual, skip from (6)
      attributes: half, newton on
      pair build: skip
      stencil: none
      bin: none
  (5) compute pair/local, occasional, copy from (6)
      attributes: half, newton on
      pair build: copy
      stencil: none
      bin: none
  (6) neighbor class addition, perpetual
      attributes: half, newton on
      pair build: half/bin/newton
      stencil: half/bin/3d/newton
      bin: standard
Setting up Verlet run ...
  Unit style    : lj
  Current step  : 2000
  Time step     : 0.001
Per MPI rank memory allocation (min/avg/max) = 9.201 | 9.201 | 9.201 Mbytes
Step Temp E_pair E_mol TotEng Press 
    2000            0 -0.00055105365            0 -0.00055105365 -3.4431359e-08 
    2200            0 -0.00055105365            0 -0.00055105365 -3.4431359e-08 
    2400            0 -0.00055105365            0 -0.00055105365 -3.4431359e-08 
    2600            0 -0.00055105365            0 -0.00055105365 -3.4431359e-08 
    2800            0 -0.00055105365            0 -0.00055105365 -3.4431359e-08 
    3000            0 -0.00055105365            0 -0.00055105365 -3.4431359e-08 
Loop time of 0.019061 on 1 procs for 1000 steps with 2 atoms

Performance: 4532815.704 tau/day, 52463.145 timesteps/s
0.0% CPU use with 1 MPI tasks x 1 OpenMP threads

MPI task timing breakdown:
Section |  min time  |  avg time  |  max time  |%varavg| %total
---------------------------------------------------------------
Pair    | 0.001969   | 0.001969   | 0.001969   |   0.0 | 10.33
Bond    | 0.001449   | 0.001449   | 0.001449   |   0.0 |  7.60
Neigh   | 0          | 0          | 0          |   0.0 |  0.00
Comm    | 0.002735   | 0.002735   | 0.002735   |   0.0 | 14.35
Output  | 0.005039   | 0.005039   | 0.005039   |   0.0 | 26.44
Modify  | 0.002731   | 0.002731   | 0.002731   |   0.0 | 14.33
Other   |            | 0.005138   |            |       | 26.96

Nlocal:    2 ave 2 max 2 min
Histogram: 1 0 0 0 0 0 0 0 0 0
Nghost:    0 ave 0 max 0 min
Histogram: 1 0 0 0 0 0 0 0 0 0
Neighs:    1 ave 1 max 1 min
Histogram: 1 0 0 0 0 0 0 0 0 0

Total # of neighbors = 1
Ave neighs/atom = 0.5
Ave special neighs/atom = 0
Neighbor list builds = 0
Dangerous builds = 0
Displacing atoms ...
Neighbor list info ...
  update every 1 steps, delay 10 steps, check yes
  max neighbors/atom: 2000, page size: 100000
  master list distance cutoff = 2.8
  ghost atom cutoff = 2.8
  binsize = 1.4, bins = 29 29 29
  6 neighbor lists, perpetual/occasional/extra = 5 1 0
  (1) pair lj/expand/twopiece, perpetual, skip from (6)
      attributes: half, newton on
      pair build: skip
      stencil: none
      bin: none
  (2) pair soft/shift, perpetual, skip from (6)
      attributes: half, newton on
      pair build: skip
      stencil: none
      bin: none
  (3) pair zero, perpetual, skip from (6)
      attributes: half, newton on
      pair build: skip
      stencil: none
      bin: none
  (4) pair morse, perpetual, skip from (6)
      attributes: half, newton on
      pair build: skip
      stencil: none
      bin: none
  (5) compute pair/local, occasional, copy from (6)
      attributes: half, newton on
      pair build: copy
      stencil: none
      bin: none
  (6) neighbor class addition, perpetual
      attributes: half, newton on
      pair build: half/bin/newton
      stencil: half/bin/3d/newton
      bin: standard
Setting up Verlet run ...
  Unit style    : lj
  Current step  : 3000
  Time step     : 0.001
Per MPI rank memory allocation (min/avg/max) = 9.201 | 9.201 | 9.201 Mbytes
Step Temp E_pair E_mol TotEng Press 
    3000            0 -0.00058601986            0 -0.00058601986 -3.6615503e-08 
    3200            0 -0.00058601986            0 -0.00058601986 -3.6615503e-08 
    3400            0 -0.00058601986            0 -0.00058601986 -3.6615503e-08 
    3600            0 -0.00058601986            0 -0.00058601986 -3.6615503e-08 
    3800            0 -0.00058601986            0 -0.00058601986 -3.6615503e-08 
    4000            0 -0.00058601986            0 -0.00058601986 -3.6615503e-08 
Loop time of 0.021498 on 1 procs for 1000 steps with 2 atoms

Performance: 4018978.517 tau/day, 46515.955 timesteps/s
0.0% CPU use with 1 MPI tasks x 1 OpenMP threads

MPI task timing breakdown:
Section |  min time  |  avg time  |  max time  |%varavg| %total
---------------------------------------------------------------
Pair    | 0.002393   | 0.002393   | 0.002393   |   0.0 | 11.13
Bond    | 0.001654   | 0.001654   | 0.001654   |   0.0 |  7.69
Neigh   | 0          | 0          | 0          |   0.0 |  0.00
Comm    | 0.003936   | 0.003936   | 0.003936   |   0.0 | 18.31
Output  | 0.004903   | 0.004903   | 0.004903   |   0.0 | 22.81
Modify  | 0.003528   | 0.003528   | 0.003528   |   0.0 | 16.41
Other   |            | 0.005084   |            |       | 23.65

Nlocal:    2 ave 2 max 2 min
Histogram: 1 0 0 0 0 0 0 0 0 0
Nghost:    0 ave 0 max 0 min
Histogram: 1 0 0 0 0 0 0 0 0 0
Neighs:    1 ave 1 max 1 min
Histogram: 1 0 0 0 0 0 0 0 0 0

Total # of neighbors = 1
Ave neighs/atom = 0.5
Ave special neighs/atom = 0
Neighbor list builds = 0
Dangerous builds = 0
Displacing atoms ...
Neighbor list info ...
  update every 1 steps, delay 10 steps, check yes
  max neighbors/atom: 2000, page size: 100000
  master list distance cutoff = 2.8
  ghost atom cutoff = 2.8
  binsize = 1.4, bins = 29 29 29
  6 neighbor lists, perpetual/occasional/extra = 5 1 0
  (1) pair lj/expand/twopiece, perpetual, skip from (6)
      attributes: half, newton on
      pair build: skip
      stencil: none
      bin: none
  (2) pair soft/shift, perpetual, skip from (6)
      attributes: half, newton on
      pair build: skip
      stencil: none
      bin: none
  (3) pair zero, perpetual, skip from (6)
      attributes: half, newton on
      pair build: skip
      stencil: none
      bin: none
  (4) pair morse, perpetual, skip from (6)
      attributes: half, newton on
      pair build: skip
      stencil: none
      bin: none
  (5) compute pair/local, occasional, copy from (6)
      attributes: half, newton on
      pair build: copy
      stencil: none
      bin: none
  (6) neighbor class addition, perpetual
      attributes: half, newton on
      pair build: half/bin/newton
      stencil: half/bin/3d/newton
      bin: standard
Setting up Verlet run ...
  Unit style    : lj
  Current step  : 4000
  Time step     : 0.001
Per MPI rank memory allocation (min/avg/max) = 9.201 | 9.201 | 9.201 Mbytes
Step Temp E_pair E_mol TotEng Press 
    4000            0 -0.00062360153            0 -0.00062360153 -3.8962936e-08 
    4200            0 -0.00062360153            0 -0.00062360153 -3.8962936e-08 
    4400            0 -0.00062360153            0 -0.00062360153 -3.8962936e-08 
    4600            0 -0.00062360153            0 -0.00062360153 -3.8962936e-08 
    4800            0 -0.00062360153            0 -0.00062360153 -3.8962936e-08 
    5000            0 -0.00062360153            0 -0.00062360153 -3.8962936e-08 
Loop time of 0.024167 on 1 procs for 1000 steps with 2 atoms

Performance: 3575123.098 tau/day, 41378.740 timesteps/s
0.0% CPU use with 1 MPI tasks x 1 OpenMP threads

MPI task timing breakdown:
Section |  min time  |  avg time  |  max time  |%varavg| %total
---------------------------------------------------------------
Pair    | 0.002797   | 0.002797   | 0.002797   |   0.0 | 11.57
Bond    | 0.001748   | 0.001748   | 0.001748   |   0.0 |  7.23
Neigh   | 0          | 0          | 0          |   0.0 |  0.00
Comm    | 0.004434   | 0.004434   | 0.004434   |   0.0 | 18.35
Output  | 0.006635   | 0.006635   | 0.006635   |   0.0 | 27.45
Modify  | 0.003813   | 0.003813   | 0.003813   |   0.0 | 15.78
Other   |            | 0.00474    |            |       | 19.61

Nlocal:    2 ave 2 max 2 min
Histogram: 1 0 0 0 0 0 0 0 0 0
Nghost:    0 ave 0 max 0 min
Histogram: 1 0 0 0 0 0 0 0 0 0
Neighs:    1 ave 1 max 1 min
Histogram: 1 0 0 0 0 0 0 0 0 0

Total # of neighbors = 1
Ave neighs/atom = 0.5
Ave special neighs/atom = 0
Neighbor list builds = 0
Dangerous builds = 0
Displacing atoms ...
Neighbor list info ...
  update every 1 steps, delay 10 steps, check yes
  max neighbors/atom: 2000, page size: 100000
  master list distance cutoff = 2.8
  ghost atom cutoff = 2.8
  binsize = 1.4, bins = 29 29 29
  6 neighbor lists, perpetual/occasional/extra = 5 1 0
  (1) pair lj/expand/twopiece, perpetual, skip from (6)
      attributes: half, newton on
      pair build: skip
      stencil: none
      bin: none
  (2) pair soft/shift, perpetual, skip from (6)
      attributes: half, newton on
      pair build: skip
      stencil: none
      bin: none
  (3) pair zero, perpetual, skip from (6)
      attributes: half, newton on
      pair build: skip
      stencil: none
      bin: none
  (4) pair morse, perpetual, skip from (6)
      attributes: half, newton on
      pair build: skip
      stencil: none
      bin: none
  (5) compute pair/local, occasional, copy from (6)
      attributes: half, newton on
      pair build: copy
      stencil: none
      bin: none
  (6) neighbor class addition, perpetual
      attributes: half, newton on
      pair build: half/bin/newton
      stencil: half/bin/3d/newton
      bin: standard
Setting up Verlet run ...
  Unit style    : lj
  Current step  : 5000
  Time step     : 0.001
Per MPI rank memory allocation (min/avg/max) = 9.201 | 9.201 | 9.201 Mbytes
Step Temp E_pair E_mol TotEng Press 
    5000            0 -0.00066402458            0 -0.00066402458 -4.1487748e-08 
    5200            0 -0.00066402458            0 -0.00066402458 -4.1487748e-08 
    5400            0 -0.00066402458            0 -0.00066402458 -4.1487748e-08 
    5600            0 -0.00066402458            0 -0.00066402458 -4.1487748e-08 
    5800            0 -0.00066402458            0 -0.00066402458 -4.1487748e-08 
    6000            0 -0.00066402458            0 -0.00066402458 -4.1487748e-08 
Loop time of 0.016845 on 1 procs for 1000 steps with 2 atoms

Performance: 5129118.422 tau/day, 59364.797 timesteps/s
0.0% CPU use with 1 MPI tasks x 1 OpenMP threads

MPI task timing breakdown:
Section |  min time  |  avg time  |  max time  |%varavg| %total
---------------------------------------------------------------
Pair    | 0.001934   | 0.001934   | 0.001934   |   0.0 | 11.48
Bond    | 0.001577   | 0.001577   | 0.001577   |   0.0 |  9.36
Neigh   | 0          | 0          | 0          |   0.0 |  0.00
Comm    | 0.002719   | 0.002719   | 0.002719   |   0.0 | 16.14
Output  | 0.003405   | 0.003405   | 0.003405   |   0.0 | 20.21
Modify  | 0.002737   | 0.002737   | 0.002737   |   0.0 | 16.25
Other   |            | 0.004473   |            |       | 26.55

Nlocal:    2 ave 2 max 2 min
Histogram: 1 0 0 0 0 0 0 0 0 0
Nghost:    0 ave 0 max 0 min
Histogram: 1 0 0 0 0 0 0 0 0 0
Neighs:    1 ave 1 max 1 min
Histogram: 1 0 0 0 0 0 0 0 0 0

Total # of neighbors = 1
Ave neighs/atom = 0.5
Ave special neighs/atom = 0
Neighbor list builds = 0
Dangerous builds = 0
Displacing atoms ...
Neighbor list info ...
  update every 1 steps, delay 10 steps, check yes
  max neighbors/atom: 2000, page size: 100000
  master list distance cutoff = 2.8
  ghost atom cutoff = 2.8
  binsize = 1.4, bins = 29 29 29
  6 neighbor lists, perpetual/occasional/extra = 5 1 0
  (1) pair lj/expand/twopiece, perpetual, skip from (6)
      attributes: half, newton on
      pair build: skip
      stencil: none
      bin: none
  (2) pair soft/shift, perpetual, skip from (6)
      attributes: half, newton on
      pair build: skip
      stencil: none
      bin: none
  (3) pair zero, perpetual, skip from (6)
      attributes: half, newton on
      pair build: skip
      stencil: none
      bin: none
  (4) pair morse, perpetual, skip from (6)
      attributes: half, newton on
      pair build: skip
      stencil: none
      bin: none
  (5) compute pair/local, occasional, copy from (6)
      attributes: half, newton on
      pair build: copy
      stencil: none
      bin: none
  (6) neighbor class addition, perpetual
      attributes: half, newton on
      pair build: half/bin/newton
      stencil: half/bin/3d/newton
      bin: standard
Setting up Verlet run ...
  Unit style    : lj
  Current step  : 6000
  Time step     : 0.001
Per MPI rank memory allocation (min/avg/max) = 9.201 | 9.201 | 9.201 Mbytes
Step Temp E_pair E_mol TotEng Press 
    6000            0 -0.00070753708            0 -0.00070753708 -4.4205412e-08 
    6200            0 -0.00070753708            0 -0.00070753708 -4.4205412e-08 
    6400            0 -0.00070753708            0 -0.00070753708 -4.4205412e-08 
    6600            0 -0.00070753708            0 -0.00070753708 -4.4205412e-08 
    6800            0 -0.00070753708            0 -0.00070753708 -4.4205412e-08 
    7000            0 -0.00070753708            0 -0.00070753708 -4.4205412e-08 
Loop time of 0.025217 on 1 procs for 1000 steps with 2 atoms

Performance: 3426260.064 tau/day, 39655.788 timesteps/s
62.0% CPU use with 1 MPI tasks x 1 OpenMP threads

MPI task timing breakdown:
Section |  min time  |  avg time  |  max time  |%varavg| %total
---------------------------------------------------------------
Pair    | 0.002492   | 0.002492   | 0.002492   |   0.0 |  9.88
Bond    | 0.001907   | 0.001907   | 0.001907   |   0.0 |  7.56
Neigh   | 0          | 0          | 0          |   0.0 |  0.00
Comm    | 0.003965   | 0.003965   | 0.003965   |   0.0 | 15.72
Output  | 0.00866    | 0.00866    | 0.00866    |   0.0 | 34.34
Modify  | 0.003387   | 0.003387   | 0.003387   |   0.0 | 13.43
Other   |            | 0.004806   |            |       | 19.06

Nlocal:    2 ave 2 max 2 min
Histogram: 1 0 0 0 0 0 0 0 0 0
Nghost:    0 ave 0 max 0 min
Histogram: 1 0 0 0 0 0 0 0 0 0
Neighs:    1 ave 1 max 1 min
Histogram: 1 0 0 0 0 0 0 0 0 0

Total # of neighbors = 1
Ave neighs/atom = 0.5
Ave special neighs/atom = 0
Neighbor list builds = 0
Dangerous builds = 0
Displacing atoms ...
Neighbor list info ...
  update every 1 steps, delay 10 steps, check yes
  max neighbors/atom: 2000, page size: 100000
  master list distance cutoff = 2.8
  ghost atom cutoff = 2.8
  binsize = 1.4, bins = 29 29 29
  6 neighbor lists, perpetual/occasional/extra = 5 1 0
  (1) pair lj/expand/twopiece, perpetual, skip from (6)
      attributes: half, newton on
      pair build: skip
      stencil: none
      bin: none
  (2) pair soft/shift, perpetual, skip from (6)
      attributes: half, newton on
      pair build: skip
      stencil: none
      bin: none
  (3) pair zero, perpetual, skip from (6)
      attributes: half, newton on
      pair build: skip
      stencil: none
      bin: none
  (4) pair morse, perpetual, skip from (6)
      attributes: half, newton on
      pair build: skip
      stencil: none
      bin: none
  (5) compute pair/local, occasional, copy from (6)
      attributes: half, newton on
      pair build: copy
      stencil: none
      bin: none
  (6) neighbor class addition, perpetual
      attributes: half, newton on
      pair build: half/bin/newton
      stencil: half/bin/3d/newton
      bin: standard
Setting up Verlet run ...
  Unit style    : lj
  Current step  : 7000
  Time step     : 0.001
Per MPI rank memory allocation (min/avg/max) = 9.201 | 9.201 | 9.201 Mbytes
Step Temp E_pair E_mol TotEng Press 
    7000            0 -0.00075441175            0 -0.00075441175 -4.7132936e-08 
    7200            0 -0.00075441175            0 -0.00075441175 -4.7132936e-08 
    7400            0 -0.00075441175            0 -0.00075441175 -4.7132936e-08 
    7600            0 -0.00075441175            0 -0.00075441175 -4.7132936e-08 
    7800            0 -0.00075441175            0 -0.00075441175 -4.7132936e-08 
    8000            0 -0.00075441175            0 -0.00075441175 -4.7132936e-08 
Loop time of 0.018233 on 1 procs for 1000 steps with 2 atoms

Performance: 4738660.683 tau/day, 54845.610 timesteps/s
0.0% CPU use with 1 MPI tasks x 1 OpenMP threads

MPI task timing breakdown:
Section |  min time  |  avg time  |  max time  |%varavg| %total
---------------------------------------------------------------
Pair    | 0.002152   | 0.002152   | 0.002152   |   0.0 | 11.80
Bond    | 0.00136    | 0.00136    | 0.00136    |   0.0 |  7.46
Neigh   | 0          | 0          | 0          |   0.0 |  0.00
Comm    | 0.00309    | 0.00309    | 0.00309    |   0.0 | 16.95
Output  | 0.004271   | 0.004271   | 0.004271   |   0.0 | 23.42
Modify  | 0.003217   | 0.003217   | 0.003217   |   0.0 | 17.64
Other   |            | 0.004143   |            |       | 22.72

Nlocal:    2 ave 2 max 2 min
Histogram: 1 0 0 0 0 0 0 0 0 0
Nghost:    0 ave 0 max 0 min
Histogram: 1 0 0 0 0 0 0 0 0 0
Neighs:    1 ave 1 max 1 min
Histogram: 1 0 0 0 0 0 0 0 0 0

Total # of neighbors = 1
Ave neighs/atom = 0.5
Ave special neighs/atom = 0
Neighbor list builds = 0
Dangerous builds = 0
Displacing atoms ...
Neighbor list info ...
  update every 1 steps, delay 10 steps, check yes
  max neighbors/atom: 2000, page size: 100000
  master list distance cutoff = 2.8
  ghost atom cutoff = 2.8
  binsize = 1.4, bins = 29 29 29
  6 neighbor lists, perpetual/occasional/extra = 5 1 0
  (1) pair lj/expand/twopiece, perpetual, skip from (6)
      attributes: half, newton on
      pair build: skip
      stencil: none
      bin: none
  (2) pair soft/shift, perpetual, skip from (6)
      attributes: half, newton on
      pair build: skip
      stencil: none
      bin: none
  (3) pair zero, perpetual, skip from (6)
      attributes: half, newton on
      pair build: skip
      stencil: none
      bin: none
  (4) pair morse, perpetual, skip from (6)
      attributes: half, newton on
      pair build: skip
      stencil: none
      bin: none
  (5) compute pair/local, occasional, copy from (6)
      attributes: half, newton on
      pair build: copy
      stencil: none
      bin: none
  (6) neighbor class addition, perpetual
      attributes: half, newton on
      pair build: half/bin/newton
      stencil: half/bin/3d/newton
      bin: standard
Setting up Verlet run ...
  Unit style    : lj
  Current step  : 8000
  Time step     : 0.001
Per MPI rank memory allocation (min/avg/max) = 9.201 | 9.201 | 9.201 Mbytes
Step Temp E_pair E_mol TotEng Press 
    8000            0 -0.00080494867            0 -0.00080494867 -5.0289027e-08 
    8200            0 -0.00080494867            0 -0.00080494867 -5.0289027e-08 
    8400            0 -0.00080494867            0 -0.00080494867 -5.0289027e-08 
    8600            0 -0.00080494867            0 -0.00080494867 -5.0289027e-08 
    8800            0 -0.00080494867            0 -0.00080494867 -5.0289027e-08 
    9000            0 -0.00080494867            0 -0.00080494867 -5.0289027e-08 
Loop time of 0.016887 on 1 procs for 1000 steps with 2 atoms

Performance: 5116361.697 tau/day, 59217.149 timesteps/s
92.5% CPU use with 1 MPI tasks x 1 OpenMP threads

MPI task timing breakdown:
Section |  min time  |  avg time  |  max time  |%varavg| %total
---------------------------------------------------------------
Pair    | 0.001854   | 0.001854   | 0.001854   |   0.0 | 10.98
Bond    | 0.001309   | 0.001309   | 0.001309   |   0.0 |  7.75
Neigh   | 0          | 0          | 0          |   0.0 |  0.00
Comm    | 0.003204   | 0.003204   | 0.003204   |   0.0 | 18.97
Output  | 0.002983   | 0.002983   | 0.002983   |   0.0 | 17.66
Modify  | 0.002413   | 0.002413   | 0.002413   |   0.0 | 14.29
Other   |            | 0.005124   |            |       | 30.34

Nlocal:    2 ave 2 max 2 min
Histogram: 1 0 0 0 0 0 0 0 0 0
Nghost:    0 ave 0 max 0 min
Histogram: 1 0 0 0 0 0 0 0 0 0
Neighs:    1 ave 1 max 1 min
Histogram: 1 0 0 0 0 0 0 0 0 0

Total # of neighbors = 1
Ave neighs/atom = 0.5
Ave special neighs/atom = 0
Neighbor list builds = 0
Dangerous builds = 0
Displacing atoms ...
Neighbor list info ...
  update every 1 steps, delay 10 steps, check yes
  max neighbors/atom: 2000, page size: 100000
  master list distance cutoff = 2.8
  ghost atom cutoff = 2.8
  binsize = 1.4, bins = 29 29 29
  6 neighbor lists, perpetual/occasional/extra = 5 1 0
  (1) pair lj/expand/twopiece, perpetual, skip from (6)
      attributes: half, newton on
      pair build: skip
      stencil: none
      bin: none
  (2) pair soft/shift, perpetual, skip from (6)
      attributes: half, newton on
      pair build: skip
      stencil: none
      bin: none
  (3) pair zero, perpetual, skip from (6)
      attributes: half, newton on
      pair build: skip
      stencil: none
      bin: none
  (4) pair morse, perpetual, skip from (6)
      attributes: half, newton on
      pair build: skip
      stencil: none
      bin: none
  (5) compute pair/local, occasional, copy from (6)
      attributes: half, newton on
      pair build: copy
      stencil: none
      bin: none
  (6) neighbor class addition, perpetual
      attributes: half, newton on
      pair build: half/bin/newton
      stencil: half/bin/3d/newton
      bin: standard
Setting up Verlet run ...
  Unit style    : lj
  Current step  : 9000
  Time step     : 0.001
Per MPI rank memory allocation (min/avg/max) = 9.201 | 9.201 | 9.201 Mbytes
Step Temp E_pair E_mol TotEng Press 
    9000            0 -0.00085947835            0 -0.00085947835 -5.3694292e-08 
    9200            0 -0.00085947835            0 -0.00085947835 -5.3694292e-08 
    9400            0 -0.00085947835            0 -0.00085947835 -5.3694292e-08 
    9600            0 -0.00085947835            0 -0.00085947835 -5.3694292e-08 
    9800            0 -0.00085947835            0 -0.00085947835 -5.3694292e-08 
   10000            0 -0.00085947835            0 -0.00085947835 -5.3694292e-08 
Loop time of 0.018414 on 1 procs for 1000 steps with 2 atoms

Performance: 4692082.114 tau/day, 54306.506 timesteps/s
84.9% CPU use with 1 MPI tasks x 1 OpenMP threads

MPI task timing breakdown:
Section |  min time  |  avg time  |  max time  |%varavg| %total
---------------------------------------------------------------
Pair    | 0.001732   | 0.001732   | 0.001732   |   0.0 |  9.41
Bond    | 0.001539   | 0.001539   | 0.001539   |   0.0 |  8.36
Neigh   | 0          | 0          | 0          |   0.0 |  0.00
Comm    | 0.003649   | 0.003649   | 0.003649   |   0.0 | 19.82
Output  | 0.003571   | 0.003571   | 0.003571   |   0.0 | 19.39
Modify  | 0.003419   | 0.003419   | 0.003419   |   0.0 | 18.57
Other   |            | 0.004504   |            |       | 24.46

Nlocal:    2 ave 2 max 2 min
Histogram: 1 0 0 0 0 0 0 0 0 0
Nghost:    0 ave 0 max 0 min
Histogram: 1 0 0 0 0 0 0 0 0 0
Neighs:    1 ave 1 max 1 min
Histogram: 1 0 0 0 0 0 0 0 0 0

Total # of neighbors = 1
Ave neighs/atom = 0.5
Ave special neighs/atom = 0
Neighbor list builds = 0
Dangerous builds = 0
Displacing atoms ...
Neighbor list info ...
  update every 1 steps, delay 10 steps, check yes
  max neighbors/atom: 2000, page size: 100000
  master list distance cutoff = 2.8
  ghost atom cutoff = 2.8
  binsize = 1.4, bins = 29 29 29
  6 neighbor lists, perpetual/occasional/extra = 5 1 0
  (1) pair lj/expand/twopiece, perpetual, skip from (6)
      attributes: half, newton on
      pair build: skip
      stencil: none
      bin: none
  (2) pair soft/shift, perpetual, skip from (6)
      attributes: half, newton on
      pair build: skip
      stencil: none
      bin: none
  (3) pair zero, perpetual, skip from (6)
      attributes: half, newton on
      pair build: skip
      stencil: none
      bin: none
  (4) pair morse, perpetual, skip from (6)
      attributes: half, newton on
      pair build: skip
      stencil: none
      bin: none
  (5) compute pair/local, occasional, copy from (6)
      attributes: half, newton on
      pair build: copy
      stencil: none
      bin: none
  (6) neighbor class addition, perpetual
      attributes: half, newton on
      pair build: half/bin/newton
      stencil: half/bin/3d/newton
      bin: standard
Setting up Verlet run ...
  Unit style    : lj
  Current step  : 10000
  Time step     : 0.001
Per MPI rank memory allocation (min/avg/max) = 9.201 | 9.201 | 9.201 Mbytes
Step Temp E_pair E_mol TotEng Press 
   10000            0 -0.00091836523            0 -0.00091836523 -5.7371447e-08 
   10200            0 -0.00091836523            0 -0.00091836523 -5.7371447e-08 
   10400            0 -0.00091836523            0 -0.00091836523 -5.7371447e-08 
   10600            0 -0.00091836523            0 -0.00091836523 -5.7371447e-08 
   10800            0 -0.00091836523            0 -0.00091836523 -5.7371447e-08 
   11000            0 -0.00091836523            0 -0.00091836523 -5.7371447e-08 
Loop time of 0.016233 on 1 procs for 1000 steps with 2 atoms

Performance: 5322491.211 tau/day, 61602.908 timesteps/s
0.0% CPU use with 1 MPI tasks x 1 OpenMP threads

MPI task timing breakdown:
Section |  min time  |  avg time  |  max time  |%varavg| %total
---------------------------------------------------------------
Pair    | 0.001803   | 0.001803   | 0.001803   |   0.0 | 11.11
Bond    | 0.001426   | 0.001426   | 0.001426   |   0.0 |  8.78
Neigh   | 0          | 0          | 0          |   0.0 |  0.00
Comm    | 0.003025   | 0.003025   | 0.003025   |   0.0 | 18.63
Output  | 0.003085   | 0.003085   | 0.003085   |   0.0 | 19.00
Modify  | 0.002626   | 0.002626   | 0.002626   |   0.0 | 16.18
Other   |            | 0.004268   |            |       | 26.29

Nlocal:    2 ave 2 max 2 min
Histogram: 1 0 0 0 0 0 0 0 0 0
Nghost:    0 ave 0 max 0 min
Histogram: 1 0 0 0 0 0 0 0 0 0
Neighs:    1 ave 1 max 1 min
Histogram: 1 0 0 0 0 0 0 0 0 0

Total # of neighbors = 1
Ave neighs/atom = 0.5
Ave special neighs/atom = 0
Neighbor list builds = 0
Dangerous builds = 0
Displacing atoms ...
Neighbor list info ...
  update every 1 steps, delay 10 steps, check yes
  max neighbors/atom: 2000, page size: 100000
  master list distance cutoff = 2.8
  ghost atom cutoff = 2.8
  binsize = 1.4, bins = 29 29 29
  6 neighbor lists, perpetual/occasional/extra = 5 1 0
  (1) pair lj/expand/twopiece, perpetual, skip from (6)
      attributes: half, newton on
      pair build: skip
      stencil: none
      bin: none
  (2) pair soft/shift, perpetual, skip from (6)
      attributes: half, newton on
      pair build: skip
      stencil: none
      bin: none
  (3) pair zero, perpetual, skip from (6)
      attributes: half, newton on
      pair build: skip
      stencil: none
      bin: none
  (4) pair morse, perpetual, skip from (6)
      attributes: half, newton on
      pair build: skip
      stencil: none
      bin: none
  (5) compute pair/local, occasional, copy from (6)
      attributes: half, newton on
      pair build: copy
      stencil: none
      bin: none
  (6) neighbor class addition, perpetual
      attributes: half, newton on
      pair build: half/bin/newton
      stencil: half/bin/3d/newton
      bin: standard
Setting up Verlet run ...
  Unit style    : lj
  Current step  : 11000
  Time step     : 0.001
Per MPI rank memory allocation (min/avg/max) = 9.201 | 9.201 | 9.201 Mbytes
Step Temp E_pair E_mol TotEng Press 
   11000            0 -0.00098201158            0 -0.00098201158 -6.1345558e-08 
   11200            0 -0.00098201158            0 -0.00098201158 -6.1345558e-08 
   11400            0 -0.00098201158            0 -0.00098201158 -6.1345558e-08 
   11600            0 -0.00098201158            0 -0.00098201158 -6.1345558e-08 
   11800            0 -0.00098201158            0 -0.00098201158 -6.1345558e-08 
   12000            0 -0.00098201158            0 -0.00098201158 -6.1345558e-08 
Loop time of 0.017383 on 1 procs for 1000 steps with 2 atoms

Performance: 4970373.354 tau/day, 57527.469 timesteps/s
89.9% CPU use with 1 MPI tasks x 1 OpenMP threads

MPI task timing breakdown:
Section |  min time  |  avg time  |  max time  |%varavg| %total
---------------------------------------------------------------
Pair    | 0.001771   | 0.001771   | 0.001771   |   0.0 | 10.19
Bond    | 0.001653   | 0.001653   | 0.001653   |   0.0 |  9.51
Neigh   | 0          | 0          | 0          |   0.0 |  0.00
Comm    | 0.002816   | 0.002816   | 0.002816   |   0.0 | 16.20
Output  | 0.003848   | 0.003848   | 0.003848   |   0.0 | 22.14
Modify  | 0.002584   | 0.002584   | 0.002584   |   0.0 | 14.87
Other   |            | 0.004711   |            |       | 27.10

Nlocal:    2 ave 2 max 2 min
Histogram: 1 0 0 0 0 0 0 0 0 0
Nghost:    0 ave 0 max 0 min
Histogram: 1 0 0 0 0 0 0 0 0 0
Neighs:    1 ave 1 max 1 min
Histogram: 1 0 0 0 0 0 0 0 0 0

Total # of neighbors = 1
Ave neighs/atom = 0.5
Ave special neighs/atom = 0
Neighbor list builds = 0
Dangerous builds = 0
Displacing atoms ...
Neighbor list info ...
  update every 1 steps, delay 10 steps, check yes
  max neighbors/atom: 2000, page size: 100000
  master list distance cutoff = 2.8
  ghost atom cutoff = 2.8
  binsize = 1.4, bins = 29 29 29
  6 neighbor lists, perpetual/occasional/extra = 5 1 0
  (1) pair lj/expand/twopiece, perpetual, skip from (6)
      attributes: half, newton on
      pair build: skip
      stencil: none
      bin: none
  (2) pair soft/shift, perpetual, skip from (6)
      attributes: half, newton on
      pair build: skip
      stencil: none
      bin: none
  (3) pair zero, perpetual, skip from (6)
      attributes: half, newton on
      pair build: skip
      stencil: none
      bin: none
  (4) pair morse, perpetual, skip from (6)
      attributes: half, newton on
      pair build: skip
      stencil: none
      bin: none
  (5) compute pair/local, occasional, copy from (6)
      attributes: half, newton on
      pair build: copy
      stencil: none
      bin: none
  (6) neighbor class addition, perpetual
      attributes: half, newton on
      pair build: half/bin/newton
      stencil: half/bin/3d/newton
      bin: standard
Setting up Verlet run ...
  Unit style    : lj
  Current step  : 12000
  Time step     : 0.001
Per MPI rank memory allocation (min/avg/max) = 9.201 | 9.201 | 9.201 Mbytes
Step Temp E_pair E_mol TotEng Press 
   12000            0 -0.0010508619            0 -0.0010508619 -6.5644322e-08 
   12200            0 -0.0010508619            0 -0.0010508619 -6.5644322e-08 
   12400            0 -0.0010508619            0 -0.0010508619 -6.5644322e-08 
   12600            0 -0.0010508619            0 -0.0010508619 -6.5644322e-08 
   12800            0 -0.0010508619            0 -0.0010508619 -6.5644322e-08 
   13000            0 -0.0010508619            0 -0.0010508619 -6.5644322e-08 
Loop time of 0.021833 on 1 procs for 1000 steps with 2 atoms

Performance: 3957312.324 tau/day, 45802.226 timesteps/s
0.0% CPU use with 1 MPI tasks x 1 OpenMP threads

MPI task timing breakdown:
Section |  min time  |  avg time  |  max time  |%varavg| %total
---------------------------------------------------------------
Pair    | 0.003706   | 0.003706   | 0.003706   |   0.0 | 16.97
Bond    | 0.002706   | 0.002706   | 0.002706   |   0.0 | 12.39
Neigh   | 0          | 0          | 0          |   0.0 |  0.00
Comm    | 0.003286   | 0.003286   | 0.003286   |   0.0 | 15.05
Output  | 0.004711   | 0.004711   | 0.004711   |   0.0 | 21.58
Modify  | 0.002767   | 0.002767   | 0.002767   |   0.0 | 12.67
Other   |            | 0.004657   |            |       | 21.33

Nlocal:    2 ave 2 max 2 min
Histogram: 1 0 0 0 0 0 0 0 0 0
Nghost:    0 ave 0 max 0 min
Histogram: 1 0 0 0 0 0 0 0 0 0
Neighs:    1 ave 1 max 1 min
Histogram: 1 0 0 0 0 0 0 0 0 0

Total # of neighbors = 1
Ave neighs/atom = 0.5
Ave special neighs/atom = 0
Neighbor list builds = 0
Dangerous builds = 0
Displacing atoms ...
Neighbor list info ...
  update every 1 steps, delay 10 steps, check yes
  max neighbors/atom: 2000, page size: 100000
  master list distance cutoff = 2.8
  ghost atom cutoff = 2.8
  binsize = 1.4, bins = 29 29 29
  6 neighbor lists, perpetual/occasional/extra = 5 1 0
  (1) pair lj/expand/twopiece, perpetual, skip from (6)
      attributes: half, newton on
      pair build: skip
      stencil: none
      bin: none
  (2) pair soft/shift, perpetual, skip from (6)
      attributes: half, newton on
      pair build: skip
      stencil: none
      bin: none
  (3) pair zero, perpetual, skip from (6)
      attributes: half, newton on
      pair build: skip
      stencil: none
      bin: none
  (4) pair morse, perpetual, skip from (6)
      attributes: half, newton on
      pair build: skip
      stencil: none
      bin: none
  (5) compute pair/local, occasional, copy from (6)
      attributes: half, newton on
      pair build: copy
      stencil: none
      bin: none
  (6) neighbor class addition, perpetual
      attributes: half, newton on
      pair build: half/bin/newton
      stencil: half/bin/3d/newton
      bin: standard
Setting up Verlet run ...
  Unit style    : lj
  Current step  : 13000
  Time step     : 0.001
Per MPI rank memory allocation (min/avg/max) = 9.201 | 9.201 | 9.201 Mbytes
Step Temp E_pair E_mol TotEng Press 
   13000            0 -0.0011254079            0 -0.0011254079 -7.0298368e-08 
   13200            0 -0.0011254079            0 -0.0011254079 -7.0298368e-08 
   13400            0 -0.0011254079            0 -0.0011254079 -7.0298368e-08 
   13600            0 -0.0011254079            0 -0.0011254079 -7.0298368e-08 
   13800            0 -0.0011254079            0 -0.0011254079 -7.0298368e-08 
   14000            0 -0.0011254079            0 -0.0011254079 -7.0298368e-08 
Loop time of 0.020333 on 1 procs for 1000 steps with 2 atoms

Performance: 4249249.989 tau/day, 49181.134 timesteps/s
0.0% CPU use with 1 MPI tasks x 1 OpenMP threads

MPI task timing breakdown:
Section |  min time  |  avg time  |  max time  |%varavg| %total
---------------------------------------------------------------
Pair    | 0.001904   | 0.001904   | 0.001904   |   0.0 |  9.36
Bond    | 0.001667   | 0.001667   | 0.001667   |   0.0 |  8.20
Neigh   | 0          | 0          | 0          |   0.0 |  0.00
Comm    | 0.003164   | 0.003164   | 0.003164   |   0.0 | 15.56
Output  | 0.005105   | 0.005105   | 0.005105   |   0.0 | 25.11
Modify  | 0.003505   | 0.003505   | 0.003505   |   0.0 | 17.24
Other   |            | 0.004988   |            |       | 24.53

Nlocal:    2 ave 2 max 2 min
Histogram: 1 0 0 0 0 0 0 0 0 0
Nghost:    0 ave 0 max 0 min
Histogram: 1 0 0 0 0 0 0 0 0 0
Neighs:    1 ave 1 max 1 min
Histogram: 1 0 0 0 0 0 0 0 0 0

Total # of neighbors = 1
Ave neighs/atom = 0.5
Ave special neighs/atom = 0
Neighbor list builds = 0
Dangerous builds = 0
Displacing atoms ...
Neighbor list info ...
  update every 1 steps, delay 10 steps, check yes
  max neighbors/atom: 2000, page size: 100000
  master list distance cutoff = 2.8
  ghost atom cutoff = 2.8
  binsize = 1.4, bins = 29 29 29
  6 neighbor lists, perpetual/occasional/extra = 5 1 0
  (1) pair lj/expand/twopiece, perpetual, skip from (6)
      attributes: half, newton on
      pair build: skip
      stencil: none
      bin: none
  (2) pair soft/shift, perpetual, skip from (6)
      attributes: half, newton on
      pair build: skip
      stencil: none
      bin: none
  (3) pair zero, perpetual, skip from (6)
      attributes: half, newton on
      pair build: skip
      stencil: none
      bin: none
  (4) pair morse, perpetual, skip from (6)
      attributes: half, newton on
      pair build: skip
      stencil: none
      bin: none
  (5) compute pair/local, occasional, copy from (6)
      attributes: half, newton on
      pair build: copy
      stencil: none
      bin: none
  (6) neighbor class addition, perpetual
      attributes: half, newton on
      pair build: half/bin/newton
      stencil: half/bin/3d/newton
      bin: standard
Setting up Verlet run ...
  Unit style    : lj
  Current step  : 14000
  Time step     : 0.001
Per MPI rank memory allocation (min/avg/max) = 9.201 | 9.201 | 9.201 Mbytes
Step Temp E_pair E_mol TotEng Press 
   14000            0 -0.001206194            0 -0.001206194 -7.5341607e-08 
   14200            0 -0.001206194            0 -0.001206194 -7.5341607e-08 
   14400            0 -0.001206194            0 -0.001206194 -7.5341607e-08 
   14600            0 -0.001206194            0 -0.001206194 -7.5341607e-08 
   14800            0 -0.001206194            0 -0.001206194 -7.5341607e-08 
   15000            0 -0.001206194            0 -0.001206194 -7.5341607e-08 
Loop time of 0.02231 on 1 procs for 1000 steps with 2 atoms

Performance: 3872702.829 tau/day, 44822.949 timesteps/s
140.1% CPU use with 1 MPI tasks x 1 OpenMP threads

MPI task timing breakdown:
Section |  min time  |  avg time  |  max time  |%varavg| %total
---------------------------------------------------------------
Pair    | 0.002489   | 0.002489   | 0.002489   |   0.0 | 11.16
Bond    | 0.001807   | 0.001807   | 0.001807   |   0.0 |  8.10
Neigh   | 0          | 0          | 0          |   0.0 |  0.00
Comm    | 0.002996   | 0.002996   | 0.002996   |   0.0 | 13.43
Output  | 0.004994   | 0.004994   | 0.004994   |   0.0 | 22.38
Modify  | 0.003193   | 0.003193   | 0.003193   |   0.0 | 14.31
Other   |            | 0.006831   |            |       | 30.62

Nlocal:    2 ave 2 max 2 min
Histogram: 1 0 0 0 0 0 0 0 0 0
Nghost:    0 ave 0 max 0 min
Histogram: 1 0 0 0 0 0 0 0 0 0
Neighs:    1 ave 1 max 1 min
Histogram: 1 0 0 0 0 0 0 0 0 0

Total # of neighbors = 1
Ave neighs/atom = 0.5
Ave special neighs/atom = 0
Neighbor list builds = 0
Dangerous builds = 0
Displacing atoms ...
Neighbor list info ...
  update every 1 steps, delay 10 steps, check yes
  max neighbors/atom: 2000, page size: 100000
  master list distance cutoff = 2.8
  ghost atom cutoff = 2.8
  binsize = 1.4, bins = 29 29 29
  6 neighbor lists, perpetual/occasional/extra = 5 1 0
  (1) pair lj/expand/twopiece, perpetual, skip from (6)
      attributes: half, newton on
      pair build: skip
      stencil: none
      bin: none
  (2) pair soft/shift, perpetual, skip from (6)
      attributes: half, newton on
      pair build: skip
      stencil: none
      bin: none
  (3) pair zero, perpetual, skip from (6)
      attributes: half, newton on
      pair build: skip
      stencil: none
      bin: none
  (4) pair morse, perpetual, skip from (6)
      attributes: half, newton on
      pair build: skip
      stencil: none
      bin: none
  (5) compute pair/local, occasional, copy from (6)
      attributes: half, newton on
      pair build: copy
      stencil: none
      bin: none
  (6) neighbor class addition, perpetual
      attributes: half, newton on
      pair build: half/bin/newton
      stencil: half/bin/3d/newton
      bin: standard
Setting up Verlet run ...
  Unit style    : lj
  Current step  : 15000
  Time step     : 0.001
Per MPI rank memory allocation (min/avg/max) = 9.201 | 9.201 | 9.201 Mbytes
Step Temp E_pair E_mol TotEng Press 
   15000            0 -0.0012938242            0 -0.0012938242 -8.0811633e-08 
   15200            0 -0.0012938242            0 -0.0012938242 -8.0811633e-08 
   15400            0 -0.0012938242            0 -0.0012938242 -8.0811633e-08 
   15600            0 -0.0012938242            0 -0.0012938242 -8.0811633e-08 
   15800            0 -0.0012938242            0 -0.0012938242 -8.0811633e-08 
   16000            0 -0.0012938242            0 -0.0012938242 -8.0811633e-08 
Loop time of 0.024184 on 1 procs for 1000 steps with 2 atoms

Performance: 3572609.993 tau/day, 41349.653 timesteps/s
0.0% CPU use with 1 MPI tasks x 1 OpenMP threads

MPI task timing breakdown:
Section |  min time  |  avg time  |  max time  |%varavg| %total
---------------------------------------------------------------
Pair    | 0.001952   | 0.001952   | 0.001952   |   0.0 |  8.07
Bond    | 0.002003   | 0.002003   | 0.002003   |   0.0 |  8.28
Neigh   | 0          | 0          | 0          |   0.0 |  0.00
Comm    | 0.003496   | 0.003496   | 0.003496   |   0.0 | 14.46
Output  | 0.008935   | 0.008935   | 0.008935   |   0.0 | 36.95
Modify  | 0.003194   | 0.003194   | 0.003194   |   0.0 | 13.21
Other   |            | 0.004604   |            |       | 19.04

Nlocal:    2 ave 2 max 2 min
Histogram: 1 0 0 0 0 0 0 0 0 0
Nghost:    0 ave 0 max 0 min
Histogram: 1 0 0 0 0 0 0 0 0 0
Neighs:    1 ave 1 max 1 min
Histogram: 1 0 0 0 0 0 0 0 0 0

Total # of neighbors = 1
Ave neighs/atom = 0.5
Ave special neighs/atom = 0
Neighbor list builds = 0
Dangerous builds = 0
Displacing atoms ...
Neighbor list info ...
  update every 1 steps, delay 10 steps, check yes
  max neighbors/atom: 2000, page size: 100000
  master list distance cutoff = 2.8
  ghost atom cutoff = 2.8
  binsize = 1.4, bins = 29 29 29
  6 neighbor lists, perpetual/occasional/extra = 5 1 0
  (1) pair lj/expand/twopiece, perpetual, skip from (6)
      attributes: half, newton on
      pair build: skip
      stencil: none
      bin: none
  (2) pair soft/shift, perpetual, skip from (6)
      attributes: half, newton on
      pair build: skip
      stencil: none
      bin: none
  (3) pair zero, perpetual, skip from (6)
      attributes: half, newton on
      pair build: skip
      stencil: none
      bin: none
  (4) pair morse, perpetual, skip from (6)
      attributes: half, newton on
      pair build: skip
      stencil: none
      bin: none
  (5) compute pair/local, occasional, copy from (6)
      attributes: half, newton on
      pair build: copy
      stencil: none
      bin: none
  (6) neighbor class addition, perpetual
      attributes: half, newton on
      pair build: half/bin/newton
      stencil: half/bin/3d/newton
      bin: standard
Setting up Verlet run ...
  Unit style    : lj
  Current step  : 16000
  Time step     : 0.001
Per MPI rank memory allocation (min/avg/max) = 9.201 | 9.201 | 9.201 Mbytes
Step Temp E_pair E_mol TotEng Press 
   16000            0 -0.0013889685            0 -0.0013889685 -8.6750161e-08 
   16200            0 -0.0013889685            0 -0.0013889685 -8.6750161e-08 
   16400            0 -0.0013889685            0 -0.0013889685 -8.6750161e-08 
   16600            0 -0.0013889685            0 -0.0013889685 -8.6750161e-08 
   16800            0 -0.0013889685            0 -0.0013889685 -8.6750161e-08 
   17000            0 -0.0013889685            0 -0.0013889685 -8.6750161e-08 
Loop time of 0.021664 on 1 procs for 1000 steps with 2 atoms

Performance: 3988183.161 tau/day, 46159.527 timesteps/s
0.0% CPU use with 1 MPI tasks x 1 OpenMP threads

MPI task timing breakdown:
Section |  min time  |  avg time  |  max time  |%varavg| %total
---------------------------------------------------------------
Pair    | 0.00202    | 0.00202    | 0.00202    |   0.0 |  9.32
Bond    | 0.001827   | 0.001827   | 0.001827   |   0.0 |  8.43
Neigh   | 0          | 0          | 0          |   0.0 |  0.00
Comm    | 0.002847   | 0.002847   | 0.002847   |   0.0 | 13.14
Output  | 0.00653    | 0.00653    | 0.00653    |   0.0 | 30.14
Modify  | 0.003947   | 0.003947   | 0.003947   |   0.0 | 18.22
Other   |            | 0.004493   |            |       | 20.74

Nlocal:    2 ave 2 max 2 min
Histogram: 1 0 0 0 0 0 0 0 0 0
Nghost:    0 ave 0 max 0 min
Histogram: 1 0 0 0 0 0 0 0 0 0
Neighs:    1 ave 1 max 1 min
Histogram: 1 0 0 0 0 0 0 0 0 0

Total # of neighbors = 1
Ave neighs/atom = 0.5
Ave special neighs/atom = 0
Neighbor list builds = 0
Dangerous builds = 0
Displacing atoms ...
Neighbor list info ...
  update every 1 steps, delay 10 steps, check yes
  max neighbors/atom: 2000, page size: 100000
  master list distance cutoff = 2.8
  ghost atom cutoff = 2.8
  binsize = 1.4, bins = 29 29 29
  6 neighbor lists, perpetual/occasional/extra = 5 1 0
  (1) pair lj/expand/twopiece, perpetual, skip from (6)
      attributes: half, newton on
      pair build: skip
      stencil: none
      bin: none
  (2) pair soft/shift, perpetual, skip from (6)
      attributes: half, newton on
      pair build: skip
      stencil: none
      bin: none
  (3) pair zero, perpetual, skip from (6)
      attributes: half, newton on
      pair build: skip
      stencil: none
      bin: none
  (4) pair morse, perpetual, skip from (6)
      attributes: half, newton on
      pair build: skip
      stencil: none
      bin: none
  (5) compute pair/local, occasional, copy from (6)
      attributes: half, newton on
      pair build: copy
      stencil: none
      bin: none
  (6) neighbor class addition, perpetual
      attributes: half, newton on
      pair build: half/bin/newton
      stencil: half/bin/3d/newton
      bin: standard
Setting up Verlet run ...
  Unit style    : lj
  Current step  : 17000
  Time step     : 0.001
Per MPI rank memory allocation (min/avg/max) = 9.201 | 9.201 | 9.201 Mbytes
Step Temp E_pair E_mol TotEng Press 
   17000            0 -0.0014923719            0 -0.0014923719 -9.3203541e-08 
   17200            0 -0.0014923719            0 -0.0014923719 -9.3203541e-08 
   17400            0 -0.0014923719            0 -0.0014923719 -9.3203541e-08 
   17600            0 -0.0014923719            0 -0.0014923719 -9.3203541e-08 
   17800            0 -0.0014923719            0 -0.0014923719 -9.3203541e-08 
   18000            0 -0.0014923719            0 -0.0014923719 -9.3203541e-08 
Loop time of 0.035049 on 1 procs for 1000 steps with 2 atoms

Performance: 2465120.260 tau/day, 28531.484 timesteps/s
44.6% CPU use with 1 MPI tasks x 1 OpenMP threads

MPI task timing breakdown:
Section |  min time  |  avg time  |  max time  |%varavg| %total
---------------------------------------------------------------
Pair    | 0.004619   | 0.004619   | 0.004619   |   0.0 | 13.18
Bond    | 0.002066   | 0.002066   | 0.002066   |   0.0 |  5.89
Neigh   | 0          | 0          | 0          |   0.0 |  0.00
Comm    | 0.005303   | 0.005303   | 0.005303   |   0.0 | 15.13
Output  | 0.008431   | 0.008431   | 0.008431   |   0.0 | 24.05
Modify  | 0.008106   | 0.008106   | 0.008106   |   0.0 | 23.13
Other   |            | 0.006524   |            |       | 18.61

Nlocal:    2 ave 2 max 2 min
Histogram: 1 0 0 0 0 0 0 0 0 0
Nghost:    0 ave 0 max 0 min
Histogram: 1 0 0 0 0 0 0 0 0 0
Neighs:    1 ave 1 max 1 min
Histogram: 1 0 0 0 0 0 0 0 0 0

Total # of neighbors = 1
Ave neighs/atom = 0.5
Ave special neighs/atom = 0
Neighbor list builds = 0
Dangerous builds = 0
Displacing atoms ...
Neighbor list info ...
  update every 1 steps, delay 10 steps, check yes
  max neighbors/atom: 2000, page size: 100000
  master list distance cutoff = 2.8
  ghost atom cutoff = 2.8
  binsize = 1.4, bins = 29 29 29
  6 neighbor lists, perpetual/occasional/extra = 5 1 0
  (1) pair lj/expand/twopiece, perpetual, skip from (6)
      attributes: half, newton on
      pair build: skip
      stencil: none
      bin: none
  (2) pair soft/shift, perpetual, skip from (6)
      attributes: half, newton on
      pair build: skip
      stencil: none
      bin: none
  (3) pair zero, perpetual, skip from (6)
      attributes: half, newton on
      pair build: skip
      stencil: none
      bin: none
  (4) pair morse, perpetual, skip from (6)
      attributes: half, newton on
      pair build: skip
      stencil: none
      bin: none
  (5) compute pair/local, occasional, copy from (6)
      attributes: half, newton on
      pair build: copy
      stencil: none
      bin: none
  (6) neighbor class addition, perpetual
      attributes: half, newton on
      pair build: half/bin/newton
      stencil: half/bin/3d/newton
      bin: standard
Setting up Verlet run ...
  Unit style    : lj
  Current step  : 18000
  Time step     : 0.001
Per MPI rank memory allocation (min/avg/max) = 9.201 | 9.201 | 9.201 Mbytes
Step Temp E_pair E_mol TotEng Press 
   18000            0 -0.0016048632            0 -0.0016048632 -1.0022333e-07 
   18200            0 -0.0016048632            0 -0.0016048632 -1.0022333e-07 
   18400            0 -0.0016048632            0 -0.0016048632 -1.0022333e-07 
   18600            0 -0.0016048632            0 -0.0016048632 -1.0022333e-07 
   18800            0 -0.0016048632            0 -0.0016048632 -1.0022333e-07 
   19000            0 -0.0016048632            0 -0.0016048632 -1.0022333e-07 
Loop time of 0.023682 on 1 procs for 1000 steps with 2 atoms

Performance: 3648340.512 tau/day, 42226.163 timesteps/s
0.0% CPU use with 1 MPI tasks x 1 OpenMP threads

MPI task timing breakdown:
Section |  min time  |  avg time  |  max time  |%varavg| %total
---------------------------------------------------------------
Pair    | 0.002584   | 0.002584   | 0.002584   |   0.0 | 10.91
Bond    | 0.001589   | 0.001589   | 0.001589   |   0.0 |  6.71
Neigh   | 0          | 0          | 0          |   0.0 |  0.00
Comm    | 0.003453   | 0.003453   | 0.003453   |   0.0 | 14.58
Output  | 0.007344   | 0.007344   | 0.007344   |   0.0 | 31.01
Modify  | 0.003238   | 0.003238   | 0.003238   |   0.0 | 13.67
Other   |            | 0.005474   |            |       | 23.11

Nlocal:    2 ave 2 max 2 min
Histogram: 1 0 0 0 0 0 0 0 0 0
Nghost:    0 ave 0 max 0 min
Histogram: 1 0 0 0 0 0 0 0 0 0
Neighs:    1 ave 1 max 1 min
Histogram: 1 0 0 0 0 0 0 0 0 0

Total # of neighbors = 1
Ave neighs/atom = 0.5
Ave special neighs/atom = 0
Neighbor list builds = 0
Dangerous builds = 0
Displacing atoms ...
Neighbor list info ...
  update every 1 steps, delay 10 steps, check yes
  max neighbors/atom: 2000, page size: 100000
  master list distance cutoff = 2.8
  ghost atom cutoff = 2.8
  binsize = 1.4, bins = 29 29 29
  6 neighbor lists, perpetual/occasional/extra = 5 1 0
  (1) pair lj/expand/twopiece, perpetual, skip from (6)
      attributes: half, newton on
      pair build: skip
      stencil: none
      bin: none
  (2) pair soft/shift, perpetual, skip from (6)
      attributes: half, newton on
      pair build: skip
      stencil: none
      bin: none
  (3) pair zero, perpetual, skip from (6)
      attributes: half, newton on
      pair build: skip
      stencil: none
      bin: none
  (4) pair morse, perpetual, skip from (6)
      attributes: half, newton on
      pair build: skip
      stencil: none
      bin: none
  (5) compute pair/local, occasional, copy from (6)
      attributes: half, newton on
      pair build: copy
      stencil: none
      bin: none
  (6) neighbor class addition, perpetual
      attributes: half, newton on
      pair build: half/bin/newton
      stencil: half/bin/3d/newton
      bin: standard
Setting up Verlet run ...
  Unit style    : lj
  Current step  : 19000
  Time step     : 0.001
Per MPI rank memory allocation (min/avg/max) = 9.201 | 9.201 | 9.201 Mbytes
Step Temp E_pair E_mol TotEng Press 
   19000            0 -0.001727366            0 -0.001727366 -1.0786697e-07 
   19200            0 -0.001727366            0 -0.001727366 -1.0786697e-07 
   19400            0 -0.001727366            0 -0.001727366 -1.0786697e-07 
   19600            0 -0.001727366            0 -0.001727366 -1.0786697e-07 
   19800            0 -0.001727366            0 -0.001727366 -1.0786697e-07 
   20000            0 -0.001727366            0 -0.001727366 -1.0786697e-07 
Loop time of 0.028518 on 1 procs for 1000 steps with 2 atoms

Performance: 3029665.471 tau/day, 35065.573 timesteps/s
0.0% CPU use with 1 MPI tasks x 1 OpenMP threads

MPI task timing breakdown:
Section |  min time  |  avg time  |  max time  |%varavg| %total
---------------------------------------------------------------
Pair    | 0.002405   | 0.002405   | 0.002405   |   0.0 |  8.43
Bond    | 0.00334    | 0.00334    | 0.00334    |   0.0 | 11.71
Neigh   | 0          | 0          | 0          |   0.0 |  0.00
Comm    | 0.004319   | 0.004319   | 0.004319   |   0.0 | 15.14
Output  | 0.009414   | 0.009414   | 0.009414   |   0.0 | 33.01
Modify  | 0.003522   | 0.003522   | 0.003522   |   0.0 | 12.35
Other   |            | 0.005518   |            |       | 19.35

Nlocal:    2 ave 2 max 2 min
Histogram: 1 0 0 0 0 0 0 0 0 0
Nghost:    0 ave 0 max 0 min
Histogram: 1 0 0 0 0 0 0 0 0 0
Neighs:    1 ave 1 max 1 min
Histogram: 1 0 0 0 0 0 0 0 0 0

Total # of neighbors = 1
Ave neighs/atom = 0.5
Ave special neighs/atom = 0
Neighbor list builds = 0
Dangerous builds = 0
Displacing atoms ...
Neighbor list info ...
  update every 1 steps, delay 10 steps, check yes
  max neighbors/atom: 2000, page size: 100000
  master list distance cutoff = 2.8
  ghost atom cutoff = 2.8
  binsize = 1.4, bins = 29 29 29
  6 neighbor lists, perpetual/occasional/extra = 5 1 0
  (1) pair lj/expand/twopiece, perpetual, skip from (6)
      attributes: half, newton on
      pair build: skip
      stencil: none
      bin: none
  (2) pair soft/shift, perpetual, skip from (6)
      attributes: half, newton on
      pair build: skip
      stencil: none
      bin: none
  (3) pair zero, perpetual, skip from (6)
      attributes: half, newton on
      pair build: skip
      stencil: none
      bin: none
  (4) pair morse, perpetual, skip from (6)
      attributes: half, newton on
      pair build: skip
      stencil: none
      bin: none
  (5) compute pair/local, occasional, copy from (6)
      attributes: half, newton on
      pair build: copy
      stencil: none
      bin: none
  (6) neighbor class addition, perpetual
      attributes: half, newton on
      pair build: half/bin/newton
      stencil: half/bin/3d/newton
      bin: standard
Setting up Verlet run ...
  Unit style    : lj
  Current step  : 20000
  Time step     : 0.001
Per MPI rank memory allocation (min/avg/max) = 9.201 | 9.201 | 9.201 Mbytes
Step Temp E_pair E_mol TotEng Press 
   20000            0 -0.0018609104            0 -0.0018609104 -1.1619848e-07 
   20200            0 -0.0018609104            0 -0.0018609104 -1.1619848e-07 
   20400            0 -0.0018609104            0 -0.0018609104 -1.1619848e-07 
   20600            0 -0.0018609104            0 -0.0018609104 -1.1619848e-07 
   20800            0 -0.0018609104            0 -0.0018609104 -1.1619848e-07 
   21000            0 -0.0018609104            0 -0.0018609104 -1.1619848e-07 
Loop time of 0.021174 on 1 procs for 1000 steps with 2 atoms

Performance: 4080476.057 tau/day, 47227.732 timesteps/s
0.0% CPU use with 1 MPI tasks x 1 OpenMP threads

MPI task timing breakdown:
Section |  min time  |  avg time  |  max time  |%varavg| %total
---------------------------------------------------------------
Pair    | 0.003806   | 0.003806   | 0.003806   |   0.0 | 17.97
Bond    | 0.001639   | 0.001639   | 0.001639   |   0.0 |  7.74
Neigh   | 0          | 0          | 0          |   0.0 |  0.00
Comm    | 0.003032   | 0.003032   | 0.003032   |   0.0 | 14.32
Output  | 0.004482   | 0.004482   | 0.004482   |   0.0 | 21.17
Modify  | 0.002842   | 0.002842   | 0.002842   |   0.0 | 13.42
Other   |            | 0.005373   |            |       | 25.38

Nlocal:    2 ave 2 max 2 min
Histogram: 1 0 0 0 0 0 0 0 0 0
Nghost:    0 ave 0 max 0 min
Histogram: 1 0 0 0 0 0 0 0 0 0
Neighs:    1 ave 1 max 1 min
Histogram: 1 0 0 0 0 0 0 0 0 0

Total # of neighbors = 1
Ave neighs/atom = 0.5
Ave special neighs/atom = 0
Neighbor list builds = 0
Dangerous builds = 0
Displacing atoms ...
Neighbor list info ...
  update every 1 steps, delay 10 steps, check yes
  max neighbors/atom: 2000, page size: 100000
  master list distance cutoff = 2.8
  ghost atom cutoff = 2.8
  binsize = 1.4, bins = 29 29 29
  6 neighbor lists, perpetual/occasional/extra = 5 1 0
  (1) pair lj/expand/twopiece, perpetual, skip from (6)
      attributes: half, newton on
      pair build: skip
      stencil: none
      bin: none
  (2) pair soft/shift, perpetual, skip from (6)
      attributes: half, newton on
      pair build: skip
      stencil: none
      bin: none
  (3) pair zero, perpetual, skip from (6)
      attributes: half, newton on
      pair build: skip
      stencil: none
      bin: none
  (4) pair morse, perpetual, skip from (6)
      attributes: half, newton on
      pair build: skip
      stencil: none
      bin: none
  (5) compute pair/local, occasional, copy from (6)
      attributes: half, newton on
      pair build: copy
      stencil: none
      bin: none
  (6) neighbor class addition, perpetual
      attributes: half, newton on
      pair build: half/bin/newton
      stencil: half/bin/3d/newton
      bin: standard
Setting up Verlet run ...
  Unit style    : lj
  Current step  : 21000
  Time step     : 0.001
Per MPI rank memory allocation (min/avg/max) = 9.201 | 9.201 | 9.201 Mbytes
Step Temp E_pair E_mol TotEng Press 
   21000            0 -0.0020066476            0 -0.0020066476 -1.2528939e-07 
   21200            0 -0.0020066476            0 -0.0020066476 -1.2528939e-07 
   21400            0 -0.0020066476            0 -0.0020066476 -1.2528939e-07 
   21600            0 -0.0020066476            0 -0.0020066476 -1.2528939e-07 
   21800            0 -0.0020066476            0 -0.0020066476 -1.2528939e-07 
   22000            0 -0.0020066476            0 -0.0020066476 -1.2528939e-07 
Loop time of 0.021304 on 1 procs for 1000 steps with 2 atoms

Performance: 4055576.419 tau/day, 46939.542 timesteps/s
0.0% CPU use with 1 MPI tasks x 1 OpenMP threads

MPI task timing breakdown:
Section |  min time  |  avg time  |  max time  |%varavg| %total
---------------------------------------------------------------
Pair    | 0.001852   | 0.001852   | 0.001852   |   0.0 |  8.69
Bond    | 0.001957   | 0.001957   | 0.001957   |   0.0 |  9.19
Neigh   | 0          | 0          | 0          |   0.0 |  0.00
Comm    | 0.005345   | 0.005345   | 0.005345   |   0.0 | 25.09
Output  | 0.003777   | 0.003777   | 0.003777   |   0.0 | 17.73
Modify  | 0.003159   | 0.003159   | 0.003159   |   0.0 | 14.83
Other   |            | 0.005214   |            |       | 24.47

Nlocal:    2 ave 2 max 2 min
Histogram: 1 0 0 0 0 0 0 0 0 0
Nghost:    0 ave 0 max 0 min
Histogram: 1 0 0 0 0 0 0 0 0 0
Neighs:    1 ave 1 max 1 min
Histogram: 1 0 0 0 0 0 0 0 0 0

Total # of neighbors = 1
Ave neighs/atom = 0.5
Ave special neighs/atom = 0
Neighbor list builds = 0
Dangerous builds = 0
Displacing atoms ...
Neighbor list info ...
  update every 1 steps, delay 10 steps, check yes
  max neighbors/atom: 2000, page size: 100000
  master list distance cutoff = 2.8
  ghost atom cutoff = 2.8
  binsize = 1.4, bins = 29 29 29
  6 neighbor lists, perpetual/occasional/extra = 5 1 0
  (1) pair lj/expand/twopiece, perpetual, skip from (6)
      attributes: half, newton on
      pair build: skip
      stencil: none
      bin: none
  (2) pair soft/shift, perpetual, skip from (6)
      attributes: half, newton on
      pair build: skip
      stencil: none
      bin: none
  (3) pair zero, perpetual, skip from (6)
      attributes: half, newton on
      pair build: skip
      stencil: none
      bin: none
  (4) pair morse, perpetual, skip from (6)
      attributes: half, newton on
      pair build: skip
      stencil: none
      bin: none
  (5) compute pair/local, occasional, copy from (6)
      attributes: half, newton on
      pair build: copy
      stencil: none
      bin: none
  (6) neighbor class addition, perpetual
      attributes: half, newton on
      pair build: half/bin/newton
      stencil: half/bin/3d/newton
      bin: standard
Setting up Verlet run ...
  Unit style    : lj
  Current step  : 22000
  Time step     : 0.001
Per MPI rank memory allocation (min/avg/max) = 9.201 | 9.201 | 9.201 Mbytes
Step Temp E_pair E_mol TotEng Press 
   22000            0 -0.0021658649            0 -0.0021658649 -1.3521964e-07 
   22200            0 -0.0021658649            0 -0.0021658649 -1.3521964e-07 
   22400            0 -0.0021658649            0 -0.0021658649 -1.3521964e-07 
   22600            0 -0.0021658649            0 -0.0021658649 -1.3521964e-07 
   22800            0 -0.0021658649            0 -0.0021658649 -1.3521964e-07 
   23000            0 -0.0021658649            0 -0.0021658649 -1.3521964e-07 
Loop time of 0.046226 on 1 procs for 1000 steps with 2 atoms

Performance: 1869078.008 tau/day, 21632.847 timesteps/s
33.8% CPU use with 1 MPI tasks x 1 OpenMP threads

MPI task timing breakdown:
Section |  min time  |  avg time  |  max time  |%varavg| %total
---------------------------------------------------------------
Pair    | 0.00404    | 0.00404    | 0.00404    |   0.0 |  8.74
Bond    | 0.013879   | 0.013879   | 0.013879   |   0.0 | 30.02
Neigh   | 0          | 0          | 0          |   0.0 |  0.00
Comm    | 0.002804   | 0.002804   | 0.002804   |   0.0 |  6.07
Output  | 0.009553   | 0.009553   | 0.009553   |   0.0 | 20.67
Modify  | 0.002701   | 0.002701   | 0.002701   |   0.0 |  5.84
Other   |            | 0.01325    |            |       | 28.66

Nlocal:    2 ave 2 max 2 min
Histogram: 1 0 0 0 0 0 0 0 0 0
Nghost:    0 ave 0 max 0 min
Histogram: 1 0 0 0 0 0 0 0 0 0
Neighs:    1 ave 1 max 1 min
Histogram: 1 0 0 0 0 0 0 0 0 0

Total # of neighbors = 1
Ave neighs/atom = 0.5
Ave special neighs/atom = 0
Neighbor list builds = 0
Dangerous builds = 0
Displacing atoms ...
Neighbor list info ...
  update every 1 steps, delay 10 steps, check yes
  max neighbors/atom: 2000, page size: 100000
  master list distance cutoff = 2.8
  ghost atom cutoff = 2.8
  binsize = 1.4, bins = 29 29 29
  6 neighbor lists, perpetual/occasional/extra = 5 1 0
  (1) pair lj/expand/twopiece, perpetual, skip from (6)
      attributes: half, newton on
      pair build: skip
      stencil: none
      bin: none
  (2) pair soft/shift, perpetual, skip from (6)
      attributes: half, newton on
      pair build: skip
      stencil: none
      bin: none
  (3) pair zero, perpetual, skip from (6)
      attributes: half, newton on
      pair build: skip
      stencil: none
      bin: none
  (4) pair morse, perpetual, skip from (6)
      attributes: half, newton on
      pair build: skip
      stencil: none
      bin: none
  (5) compute pair/local, occasional, copy from (6)
      attributes: half, newton on
      pair build: copy
      stencil: none
      bin: none
  (6) neighbor class addition, perpetual
      attributes: half, newton on
      pair build: half/bin/newton
      stencil: half/bin/3d/newton
      bin: standard
Setting up Verlet run ...
  Unit style    : lj
  Current step  : 23000
  Time step     : 0.001
Per MPI rank memory allocation (min/avg/max) = 9.201 | 9.201 | 9.201 Mbytes
Step Temp E_pair E_mol TotEng Press 
   23000            0 -0.0023400044            0 -0.0023400044 -1.4607876e-07 
   23200            0 -0.0023400044            0 -0.0023400044 -1.4607876e-07 
   23400            0 -0.0023400044            0 -0.0023400044 -1.4607876e-07 
   23600            0 -0.0023400044            0 -0.0023400044 -1.4607876e-07 
   23800            0 -0.0023400044            0 -0.0023400044 -1.4607876e-07 
   24000            0 -0.0023400044            0 -0.0023400044 -1.4607876e-07 
Loop time of 0.018002 on 1 procs for 1000 steps with 2 atoms

Performance: 4799466.727 tau/day, 55549.383 timesteps/s
86.8% CPU use with 1 MPI tasks x 1 OpenMP threads

MPI task timing breakdown:
Section |  min time  |  avg time  |  max time  |%varavg| %total
---------------------------------------------------------------
Pair    | 0.001794   | 0.001794   | 0.001794   |   0.0 |  9.97
Bond    | 0.001401   | 0.001401   | 0.001401   |   0.0 |  7.78
Neigh   | 0          | 0          | 0          |   0.0 |  0.00
Comm    | 0.002772   | 0.002772   | 0.002772   |   0.0 | 15.40
Output  | 0.003001   | 0.003001   | 0.003001   |   0.0 | 16.67
Modify  | 0.003307   | 0.003307   | 0.003307   |   0.0 | 18.37
Other   |            | 0.005727   |            |       | 31.81

Nlocal:    2 ave 2 max 2 min
Histogram: 1 0 0 0 0 0 0 0 0 0
Nghost:    0 ave 0 max 0 min
Histogram: 1 0 0 0 0 0 0 0 0 0
Neighs:    1 ave 1 max 1 min
Histogram: 1 0 0 0 0 0 0 0 0 0

Total # of neighbors = 1
Ave neighs/atom = 0.5
Ave special neighs/atom = 0
Neighbor list builds = 0
Dangerous builds = 0
Displacing atoms ...
Neighbor list info ...
  update every 1 steps, delay 10 steps, check yes
  max neighbors/atom: 2000, page size: 100000
  master list distance cutoff = 2.8
  ghost atom cutoff = 2.8
  binsize = 1.4, bins = 29 29 29
  6 neighbor lists, perpetual/occasional/extra = 5 1 0
  (1) pair lj/expand/twopiece, perpetual, skip from (6)
      attributes: half, newton on
      pair build: skip
      stencil: none
      bin: none
  (2) pair soft/shift, perpetual, skip from (6)
      attributes: half, newton on
      pair build: skip
      stencil: none
      bin: none
  (3) pair zero, perpetual, skip from (6)
      attributes: half, newton on
      pair build: skip
      stencil: none
      bin: none
  (4) pair morse, perpetual, skip from (6)
      attributes: half, newton on
      pair build: skip
      stencil: none
      bin: none
  (5) compute pair/local, occasional, copy from (6)
      attributes: half, newton on
      pair build: copy
      stencil: none
      bin: none
  (6) neighbor class addition, perpetual
      attributes: half, newton on
      pair build: half/bin/newton
      stencil: half/bin/3d/newton
      bin: standard
Setting up Verlet run ...
  Unit style    : lj
  Current step  : 24000
  Time step     : 0.001
Per MPI rank memory allocation (min/avg/max) = 9.201 | 9.201 | 9.201 Mbytes
Step Temp E_pair E_mol TotEng Press 
   24000            0 -0.002530684            0 -0.002530684 -1.579671e-07 
   24200            0 -0.002530684            0 -0.002530684 -1.579671e-07 
   24400            0 -0.002530684            0 -0.002530684 -1.579671e-07 
   24600            0 -0.002530684            0 -0.002530684 -1.579671e-07 
   24800            0 -0.002530684            0 -0.002530684 -1.579671e-07 
   25000            0 -0.002530684            0 -0.002530684 -1.579671e-07 
Loop time of 0.016175 on 1 procs for 1000 steps with 2 atoms

Performance: 5341576.508 tau/day, 61823.802 timesteps/s
0.0% CPU use with 1 MPI tasks x 1 OpenMP threads

MPI task timing breakdown:
Section |  min time  |  avg time  |  max time  |%varavg| %total
---------------------------------------------------------------
Pair    | 0.001701   | 0.001701   | 0.001701   |   0.0 | 10.52
Bond    | 0.001398   | 0.001398   | 0.001398   |   0.0 |  8.64
Neigh   | 0          | 0          | 0          |   0.0 |  0.00
Comm    | 0.002863   | 0.002863   | 0.002863   |   0.0 | 17.70
Output  | 0.002462   | 0.002462   | 0.002462   |   0.0 | 15.22
Modify  | 0.002956   | 0.002956   | 0.002956   |   0.0 | 18.28
Other   |            | 0.004795   |            |       | 29.64

Nlocal:    2 ave 2 max 2 min
Histogram: 1 0 0 0 0 0 0 0 0 0
Nghost:    0 ave 0 max 0 min
Histogram: 1 0 0 0 0 0 0 0 0 0
Neighs:    1 ave 1 max 1 min
Histogram: 1 0 0 0 0 0 0 0 0 0

Total # of neighbors = 1
Ave neighs/atom = 0.5
Ave special neighs/atom = 0
Neighbor list builds = 0
Dangerous builds = 0
Displacing atoms ...
Neighbor list info ...
  update every 1 steps, delay 10 steps, check yes
  max neighbors/atom: 2000, page size: 100000
  master list distance cutoff = 2.8
  ghost atom cutoff = 2.8
  binsize = 1.4, bins = 29 29 29
  6 neighbor lists, perpetual/occasional/extra = 5 1 0
  (1) pair lj/expand/twopiece, perpetual, skip from (6)
      attributes: half, newton on
      pair build: skip
      stencil: none
      bin: none
  (2) pair soft/shift, perpetual, skip from (6)
      attributes: half, newton on
      pair build: skip
      stencil: none
      bin: none
  (3) pair zero, perpetual, skip from (6)
      attributes: half, newton on
      pair build: skip
      stencil: none
      bin: none
  (4) pair morse, perpetual, skip from (6)
      attributes: half, newton on
      pair build: skip
      stencil: none
      bin: none
  (5) compute pair/local, occasional, copy from (6)
      attributes: half, newton on
      pair build: copy
      stencil: none
      bin: none
  (6) neighbor class addition, perpetual
      attributes: half, newton on
      pair build: half/bin/newton
      stencil: half/bin/3d/newton
      bin: standard
Setting up Verlet run ...
  Unit style    : lj
  Current step  : 25000
  Time step     : 0.001
Per MPI rank memory allocation (min/avg/max) = 9.201 | 9.201 | 9.201 Mbytes
Step Temp E_pair E_mol TotEng Press 
   25000            0 -0.0027397209            0 -0.0027397209 -1.7099734e-07 
   25200            0 -0.0027397209            0 -0.0027397209 -1.7099734e-07 
   25400            0 -0.0027397209            0 -0.0027397209 -1.7099734e-07 
   25600            0 -0.0027397209            0 -0.0027397209 -1.7099734e-07 
   25800            0 -0.0027397209            0 -0.0027397209 -1.7099734e-07 
   26000            0 -0.0027397209            0 -0.0027397209 -1.7099734e-07 
Loop time of 0.017219 on 1 procs for 1000 steps with 2 atoms

Performance: 5017713.000 tau/day, 58075.382 timesteps/s
0.0% CPU use with 1 MPI tasks x 1 OpenMP threads

MPI task timing breakdown:
Section |  min time  |  avg time  |  max time  |%varavg| %total
---------------------------------------------------------------
Pair    | 0.002084   | 0.002084   | 0.002084   |   0.0 | 12.10
Bond    | 0.001552   | 0.001552   | 0.001552   |   0.0 |  9.01
Neigh   | 0          | 0          | 0          |   0.0 |  0.00
Comm    | 0.003638   | 0.003638   | 0.003638   |   0.0 | 21.13
Output  | 0.002704   | 0.002704   | 0.002704   |   0.0 | 15.70
Modify  | 0.00271    | 0.00271    | 0.00271    |   0.0 | 15.74
Other   |            | 0.004531   |            |       | 26.31

Nlocal:    2 ave 2 max 2 min
Histogram: 1 0 0 0 0 0 0 0 0 0
Nghost:    0 ave 0 max 0 min
Histogram: 1 0 0 0 0 0 0 0 0 0
Neighs:    1 ave 1 max 1 min
Histogram: 1 0 0 0 0 0 0 0 0 0

Total # of neighbors = 1
Ave neighs/atom = 0.5
Ave special neighs/atom = 0
Neighbor list builds = 0
Dangerous builds = 0
Displacing atoms ...
Neighbor list info ...
  update every 1 steps, delay 10 steps, check yes
  max neighbors/atom: 2000, page size: 100000
  master list distance cutoff = 2.8
  ghost atom cutoff = 2.8
  binsize = 1.4, bins = 29 29 29
  6 neighbor lists, perpetual/occasional/extra = 5 1 0
  (1) pair lj/expand/twopiece, perpetual, skip from (6)
      attributes: half, newton on
      pair build: skip
      stencil: none
      bin: none
  (2) pair soft/shift, perpetual, skip from (6)
      attributes: half, newton on
      pair build: skip
      stencil: none
      bin: none
  (3) pair zero, perpetual, skip from (6)
      attributes: half, newton on
      pair build: skip
      stencil: none
      bin: none
  (4) pair morse, perpetual, skip from (6)
      attributes: half, newton on
      pair build: skip
      stencil: none
      bin: none
  (5) compute pair/local, occasional, copy from (6)
      attributes: half, newton on
      pair build: copy
      stencil: none
      bin: none
  (6) neighbor class addition, perpetual
      attributes: half, newton on
      pair build: half/bin/newton
      stencil: half/bin/3d/newton
      bin: standard
Setting up Verlet run ...
  Unit style    : lj
  Current step  : 26000
  Time step     : 0.001
Per MPI rank memory allocation (min/avg/max) = 9.201 | 9.201 | 9.201 Mbytes
Step Temp E_pair E_mol TotEng Press 
   26000            0 -0.0029691596            0 -0.0029691596 -1.8529616e-07 
   26200            0 -0.0029691596            0 -0.0029691596 -1.8529616e-07 
   26400            0 -0.0029691596            0 -0.0029691596 -1.8529616e-07 
   26600            0 -0.0029691596            0 -0.0029691596 -1.8529616e-07 
   26800            0 -0.0029691596            0 -0.0029691596 -1.8529616e-07 
   27000            0 -0.0029691596            0 -0.0029691596 -1.8529616e-07 
Loop time of 0.019008 on 1 procs for 1000 steps with 2 atoms

Performance: 4545454.552 tau/day, 52609.428 timesteps/s
0.0% CPU use with 1 MPI tasks x 1 OpenMP threads

MPI task timing breakdown:
Section |  min time  |  avg time  |  max time  |%varavg| %total
---------------------------------------------------------------
Pair    | 0.002033   | 0.002033   | 0.002033   |   0.0 | 10.70
Bond    | 0.001603   | 0.001603   | 0.001603   |   0.0 |  8.43
Neigh   | 0          | 0          | 0          |   0.0 |  0.00
Comm    | 0.002947   | 0.002947   | 0.002947   |   0.0 | 15.50
Output  | 0.004441   | 0.004441   | 0.004441   |   0.0 | 23.36
Modify  | 0.003085   | 0.003085   | 0.003085   |   0.0 | 16.23
Other   |            | 0.004899   |            |       | 25.77

Nlocal:    2 ave 2 max 2 min
Histogram: 1 0 0 0 0 0 0 0 0 0
Nghost:    0 ave 0 max 0 min
Histogram: 1 0 0 0 0 0 0 0 0 0
Neighs:    1 ave 1 max 1 min
Histogram: 1 0 0 0 0 0 0 0 0 0

Total # of neighbors = 1
Ave neighs/atom = 0.5
Ave special neighs/atom = 0
Neighbor list builds = 0
Dangerous builds = 0
Displacing atoms ...
Neighbor list info ...
  update every 1 steps, delay 10 steps, check yes
  max neighbors/atom: 2000, page size: 100000
  master list distance cutoff = 2.8
  ghost atom cutoff = 2.8
  binsize = 1.4, bins = 29 29 29
  6 neighbor lists, perpetual/occasional/extra = 5 1 0
  (1) pair lj/expand/twopiece, perpetual, skip from (6)
      attributes: half, newton on
      pair build: skip
      stencil: none
      bin: none
  (2) pair soft/shift, perpetual, skip from (6)
      attributes: half, newton on
      pair build: skip
      stencil: none
      bin: none
  (3) pair zero, perpetual, skip from (6)
      attributes: half, newton on
      pair build: skip
      stencil: none
      bin: none
  (4) pair morse, perpetual, skip from (6)
[...]
  (1) pair lj/expand/twopiece, perpetual, skip from (6)
      attributes: half, newton on
      pair build: skip
      stencil: none
      bin: none
  (2) pair soft/shift, perpetual, skip from (6)
      attributes: half, newton on
      pair build: skip
      stencil: none
      bin: none
  (3) pair zero, perpetual, skip from (6)
      attributes: half, newton on
      pair build: skip
      stencil: none
      bin: none
  (4) pair morse, perpetual, skip from (6)
      attributes: half, newton on
      pair build: skip
      stencil: none
      bin: none
  (5) compute pair/local, occasional, copy from (6)
      attributes: half, newton on
      pair build: copy
      stencil: none
      bin: none
  (6) neighbor class addition, perpetual
      attributes: half, newton on
      pair build: half/bin/newton
      stencil: half/bin/3d/newton
      bin: standard
Setting up Verlet run ...
  Unit style    : lj
  Current step  : 74000
  Time step     : 0.001
Per MPI rank memory allocation (min/avg/max) = 9.201 | 9.201 | 9.201 Mbytes
Step Temp E_pair E_mol TotEng Press 
   74000            0  -0.33143495            0  -0.33143495 5.7359947e-05 
   74200            0  -0.33143495            0  -0.33143495 5.7359947e-05 
   74400            0  -0.33143495            0  -0.33143495 5.7359947e-05 
   74600            0  -0.33143495            0  -0.33143495 5.7359947e-05 
   74800            0  -0.33143495            0  -0.33143495 5.7359947e-05 
   75000            0  -0.33143495            0  -0.33143495 5.7359947e-05 
Loop time of 0.017875 on 1 procs for 1000 steps with 2 atoms

Performance: 4833566.428 tau/day, 55944.056 timesteps/s
0.0% CPU use with 1 MPI tasks x 1 OpenMP threads

MPI task timing breakdown:
Section |  min time  |  avg time  |  max time  |%varavg| %total
---------------------------------------------------------------
Pair    | 0.0018     | 0.0018     | 0.0018     |   0.0 | 10.07
Bond    | 0.001678   | 0.001678   | 0.001678   |   0.0 |  9.39
Neigh   | 0          | 0          | 0          |   0.0 |  0.00
Comm    | 0.002708   | 0.002708   | 0.002708   |   0.0 | 15.15
Output  | 0.004408   | 0.004408   | 0.004408   |   0.0 | 24.66
Modify  | 0.002883   | 0.002883   | 0.002883   |   0.0 | 16.13
Other   |            | 0.004398   |            |       | 24.60

Nlocal:    2 ave 2 max 2 min
Histogram: 1 0 0 0 0 0 0 0 0 0
Nghost:    0 ave 0 max 0 min
Histogram: 1 0 0 0 0 0 0 0 0 0
Neighs:    1 ave 1 max 1 min
Histogram: 1 0 0 0 0 0 0 0 0 0

Total # of neighbors = 1
Ave neighs/atom = 0.5
Ave special neighs/atom = 0
Neighbor list builds = 0
Dangerous builds = 0
Displacing atoms ...
Neighbor list info ...
  update every 1 steps, delay 10 steps, check yes
  max neighbors/atom: 2000, page size: 100000
  master list distance cutoff = 2.8
  ghost atom cutoff = 2.8
  binsize = 1.4, bins = 29 29 29
  6 neighbor lists, perpetual/occasional/extra = 5 1 0
  (1) pair lj/expand/twopiece, perpetual, skip from (6)
      attributes: half, newton on
      pair build: skip
      stencil: none
      bin: none
  (2) pair soft/shift, perpetual, skip from (6)
      attributes: half, newton on
      pair build: skip
      stencil: none
      bin: none
  (3) pair zero, perpetual, skip from (6)
      attributes: half, newton on
      pair build: skip
      stencil: none
      bin: none
  (4) pair morse, perpetual, skip from (6)
      attributes: half, newton on
      pair build: skip
      stencil: none
      bin: none
  (5) compute pair/local, occasional, copy from (6)
      attributes: half, newton on
      pair build: copy
      stencil: none
      bin: none
  (6) neighbor class addition, perpetual
      attributes: half, newton on
      pair build: half/bin/newton
      stencil: half/bin/3d/newton
      bin: standard
Setting up Verlet run ...
  Unit style    : lj
  Current step  : 75000
  Time step     : 0.001
Per MPI rank memory allocation (min/avg/max) = 9.201 | 9.201 | 9.201 Mbytes
Step Temp E_pair E_mol TotEng Press 
   75000            0 3.1974423e-14            0 3.1974423e-14     0.000125 
   75200            0 3.1974423e-14            0 3.1974423e-14     0.000125 
   75400            0 3.1974423e-14            0 3.1974423e-14     0.000125 
   75600            0 3.1974423e-14            0 3.1974423e-14     0.000125 
   75800            0 3.1974423e-14            0 3.1974423e-14     0.000125 
   76000            0 3.1974423e-14            0 3.1974423e-14     0.000125 
Loop time of 0.018354 on 1 procs for 1000 steps with 2 atoms

Performance: 4707420.726 tau/day, 54484.036 timesteps/s
0.0% CPU use with 1 MPI tasks x 1 OpenMP threads

MPI task timing breakdown:
Section |  min time  |  avg time  |  max time  |%varavg| %total
---------------------------------------------------------------
Pair    | 0.002009   | 0.002009   | 0.002009   |   0.0 | 10.95
Bond    | 0.001601   | 0.001601   | 0.001601   |   0.0 |  8.72
Neigh   | 0          | 0          | 0          |   0.0 |  0.00
Comm    | 0.002986   | 0.002986   | 0.002986   |   0.0 | 16.27
Output  | 0.004025   | 0.004025   | 0.004025   |   0.0 | 21.93
Modify  | 0.003043   | 0.003043   | 0.003043   |   0.0 | 16.58
Other   |            | 0.00469    |            |       | 25.55

Nlocal:    2 ave 2 max 2 min
Histogram: 1 0 0 0 0 0 0 0 0 0
Nghost:    0 ave 0 max 0 min
Histogram: 1 0 0 0 0 0 0 0 0 0
Neighs:    1 ave 1 max 1 min
Histogram: 1 0 0 0 0 0 0 0 0 0

Total # of neighbors = 1
Ave neighs/atom = 0.5
Ave special neighs/atom = 0
Neighbor list builds = 0
Dangerous builds = 0
Displacing atoms ...
Neighbor list info ...
  update every 1 steps, delay 10 steps, check yes
  max neighbors/atom: 2000, page size: 100000
  master list distance cutoff = 2.8
  ghost atom cutoff = 2.8
  binsize = 1.4, bins = 29 29 29
  6 neighbor lists, perpetual/occasional/extra = 5 1 0
  (1) pair lj/expand/twopiece, perpetual, skip from (6)
      attributes: half, newton on
      pair build: skip
      stencil: none
      bin: none
  (2) pair soft/shift, perpetual, skip from (6)
      attributes: half, newton on
      pair build: skip
      stencil: none
      bin: none
  (3) pair zero, perpetual, skip from (6)
      attributes: half, newton on
      pair build: skip
      stencil: none
      bin: none
  (4) pair morse, perpetual, skip from (6)
      attributes: half, newton on
      pair build: skip
      stencil: none
      bin: none
  (5) compute pair/local, occasional, copy from (6)
      attributes: half, newton on
      pair build: copy
      stencil: none
      bin: none
  (6) neighbor class addition, perpetual
      attributes: half, newton on
      pair build: half/bin/newton
      stencil: half/bin/3d/newton
      bin: standard
Setting up Verlet run ...
  Unit style    : lj
  Current step  : 76000
  Time step     : 0.001
Per MPI rank memory allocation (min/avg/max) = 9.201 | 9.201 | 9.201 Mbytes
Step Temp E_pair E_mol TotEng Press 
   76000            0   0.70911947            0   0.70911947 0.00024833173 
   76200            0   0.70911947            0   0.70911947 0.00024833173 
   76400            0   0.70911947            0   0.70911947 0.00024833173 
   76600            0   0.70911947            0   0.70911947 0.00024833173 
   76800            0   0.70911947            0   0.70911947 0.00024833173 
   77000            0   0.70911947            0   0.70911947 0.00024833173 
Loop time of 0.015753 on 1 procs for 1000 steps with 2 atoms

Performance: 5484669.592 tau/day, 63479.972 timesteps/s
99.2% CPU use with 1 MPI tasks x 1 OpenMP threads

MPI task timing breakdown:
Section |  min time  |  avg time  |  max time  |%varavg| %total
---------------------------------------------------------------
Pair    | 0.001766   | 0.001766   | 0.001766   |   0.0 | 11.21
Bond    | 0.001378   | 0.001378   | 0.001378   |   0.0 |  8.75
Neigh   | 0          | 0          | 0          |   0.0 |  0.00
Comm    | 0.002634   | 0.002634   | 0.002634   |   0.0 | 16.72
Output  | 0.003251   | 0.003251   | 0.003251   |   0.0 | 20.64
Modify  | 0.002574   | 0.002574   | 0.002574   |   0.0 | 16.34
Other   |            | 0.00415    |            |       | 26.34

Nlocal:    2 ave 2 max 2 min
Histogram: 1 0 0 0 0 0 0 0 0 0
Nghost:    0 ave 0 max 0 min
Histogram: 1 0 0 0 0 0 0 0 0 0
Neighs:    1 ave 1 max 1 min
Histogram: 1 0 0 0 0 0 0 0 0 0

Total # of neighbors = 1
Ave neighs/atom = 0.5
Ave special neighs/atom = 0
Neighbor list builds = 0
Dangerous builds = 0
Displacing atoms ...
Neighbor list info ...
  update every 1 steps, delay 10 steps, check yes
  max neighbors/atom: 2000, page size: 100000
  master list distance cutoff = 2.8
  ghost atom cutoff = 2.8
  binsize = 1.4, bins = 29 29 29
  6 neighbor lists, perpetual/occasional/extra = 5 1 0
  (1) pair lj/expand/twopiece, perpetual, skip from (6)
      attributes: half, newton on
      pair build: skip
      stencil: none
      bin: none
  (2) pair soft/shift, perpetual, skip from (6)
      attributes: half, newton on
      pair build: skip
      stencil: none
      bin: none
  (3) pair zero, perpetual, skip from (6)
      attributes: half, newton on
      pair build: skip
      stencil: none
      bin: none
  (4) pair morse, perpetual, skip from (6)
      attributes: half, newton on
      pair build: skip
      stencil: none
      bin: none
  (5) compute pair/local, occasional, copy from (6)
      attributes: half, newton on
      pair build: copy
      stencil: none
      bin: none
  (6) neighbor class addition, perpetual
      attributes: half, newton on
      pair build: half/bin/newton
      stencil: half/bin/3d/newton
      bin: standard
Setting up Verlet run ...
  Unit style    : lj
  Current step  : 77000
  Time step     : 0.001
Per MPI rank memory allocation (min/avg/max) = 9.201 | 9.201 | 9.201 Mbytes
Step Temp E_pair E_mol TotEng Press 
   77000            0    2.1413162            0    2.1413162 0.00047381439 
   77200            0    2.1413162            0    2.1413162 0.00047381439 
   77400            0    2.1413162            0    2.1413162 0.00047381439 
   77600            0    2.1413162            0    2.1413162 0.00047381439 
   77800            0    2.1413162            0    2.1413162 0.00047381439 
   78000            0    2.1413162            0    2.1413162 0.00047381439 
Loop time of 0.017006 on 1 procs for 1000 steps with 2 atoms

Performance: 5080559.808 tau/day, 58802.776 timesteps/s
0.0% CPU use with 1 MPI tasks x 1 OpenMP threads

MPI task timing breakdown:
Section |  min time  |  avg time  |  max time  |%varavg| %total
---------------------------------------------------------------
Pair    | 0.002352   | 0.002352   | 0.002352   |   0.0 | 13.83
Bond    | 0.00148    | 0.00148    | 0.00148    |   0.0 |  8.70
Neigh   | 0          | 0          | 0          |   0.0 |  0.00
Comm    | 0.003123   | 0.003123   | 0.003123   |   0.0 | 18.36
Output  | 0.002901   | 0.002901   | 0.002901   |   0.0 | 17.06
Modify  | 0.002553   | 0.002553   | 0.002553   |   0.0 | 15.01
Other   |            | 0.004597   |            |       | 27.03

Nlocal:    2 ave 2 max 2 min
Histogram: 1 0 0 0 0 0 0 0 0 0
Nghost:    0 ave 0 max 0 min
Histogram: 1 0 0 0 0 0 0 0 0 0
Neighs:    1 ave 1 max 1 min
Histogram: 1 0 0 0 0 0 0 0 0 0

Total # of neighbors = 1
Ave neighs/atom = 0.5
Ave special neighs/atom = 0
Neighbor list builds = 0
Dangerous builds = 0
Displacing atoms ...
Neighbor list info ...
  update every 1 steps, delay 10 steps, check yes
  max neighbors/atom: 2000, page size: 100000
  master list distance cutoff = 2.8
  ghost atom cutoff = 2.8
  binsize = 1.4, bins = 29 29 29
  6 neighbor lists, perpetual/occasional/extra = 5 1 0
  (1) pair lj/expand/twopiece, perpetual, skip from (6)
      attributes: half, newton on
      pair build: skip
      stencil: none
      bin: none
  (2) pair soft/shift, perpetual, skip from (6)
      attributes: half, newton on
      pair build: skip
      stencil: none
      bin: none
  (3) pair zero, perpetual, skip from (6)
      attributes: half, newton on
      pair build: skip
      stencil: none
      bin: none
  (4) pair morse, perpetual, skip from (6)
      attributes: half, newton on
      pair build: skip
      stencil: none
      bin: none
  (5) compute pair/local, occasional, copy from (6)
      attributes: half, newton on
      pair build: copy
      stencil: none
      bin: none
  (6) neighbor class addition, perpetual
      attributes: half, newton on
      pair build: half/bin/newton
      stencil: half/bin/3d/newton
      bin: standard
Setting up Verlet run ...
  Unit style    : lj
  Current step  : 78000
  Time step     : 0.001
Per MPI rank memory allocation (min/avg/max) = 9.201 | 9.201 | 9.201 Mbytes
Step Temp E_pair E_mol TotEng Press 
   78000            0     4.966783            0     4.966783 0.00089001002 
   78200            0     4.966783            0     4.966783 0.00089001002 
   78400            0     4.966783            0     4.966783 0.00089001002 
   78600            0     4.966783            0     4.966783 0.00089001002 
   78800            0     4.966783            0     4.966783 0.00089001002 
   79000            0     4.966783            0     4.966783 0.00089001002 
Loop time of 0.015467 on 1 procs for 1000 steps with 2 atoms

Performance: 5586086.500 tau/day, 64653.779 timesteps/s
101.0% CPU use with 1 MPI tasks x 1 OpenMP threads

MPI task timing breakdown:
Section |  min time  |  avg time  |  max time  |%varavg| %total
---------------------------------------------------------------
Pair    | 0.00178    | 0.00178    | 0.00178    |   0.0 | 11.51
Bond    | 0.00132    | 0.00132    | 0.00132    |   0.0 |  8.53
Neigh   | 0          | 0          | 0          |   0.0 |  0.00
Comm    | 0.002587   | 0.002587   | 0.002587   |   0.0 | 16.73
Output  | 0.002303   | 0.002303   | 0.002303   |   0.0 | 14.89
Modify  | 0.003002   | 0.003002   | 0.003002   |   0.0 | 19.41
Other   |            | 0.004475   |            |       | 28.93

Nlocal:    2 ave 2 max 2 min
Histogram: 1 0 0 0 0 0 0 0 0 0
Nghost:    0 ave 0 max 0 min
Histogram: 1 0 0 0 0 0 0 0 0 0
Neighs:    1 ave 1 max 1 min
Histogram: 1 0 0 0 0 0 0 0 0 0

Total # of neighbors = 1
Ave neighs/atom = 0.5
Ave special neighs/atom = 0
Neighbor list builds = 0
Dangerous builds = 0
Displacing atoms ...
Neighbor list info ...
  update every 1 steps, delay 10 steps, check yes
  max neighbors/atom: 2000, page size: 100000
  master list distance cutoff = 2.8
  ghost atom cutoff = 2.8
  binsize = 1.4, bins = 29 29 29
  6 neighbor lists, perpetual/occasional/extra = 5 1 0
  (1) pair lj/expand/twopiece, perpetual, skip from (6)
      attributes: half, newton on
      pair build: skip
      stencil: none
      bin: none
  (2) pair soft/shift, perpetual, skip from (6)
      attributes: half, newton on
      pair build: skip
      stencil: none
      bin: none
  (3) pair zero, perpetual, skip from (6)
      attributes: half, newton on
      pair build: skip
      stencil: none
      bin: none
  (4) pair morse, perpetual, skip from (6)
      attributes: half, newton on
      pair build: skip
      stencil: none
      bin: none
  (5) compute pair/local, occasional, copy from (6)
      attributes: half, newton on
      pair build: copy
      stencil: none
      bin: none
  (6) neighbor class addition, perpetual
      attributes: half, newton on
      pair build: half/bin/newton
      stencil: half/bin/3d/newton
      bin: standard
Setting up Verlet run ...
  Unit style    : lj
  Current step  : 79000
  Time step     : 0.001
Per MPI rank memory allocation (min/avg/max) = 9.201 | 9.201 | 9.201 Mbytes
Step Temp E_pair E_mol TotEng Press 
   79000            0     10.51293            0     10.51293 0.0016699395 
   79200            0     10.51293            0     10.51293 0.0016699395 
   79400            0     10.51293            0     10.51293 0.0016699395 
   79600            0     10.51293            0     10.51293 0.0016699395 
   79800            0     10.51293            0     10.51293 0.0016699395 
   80000            0     10.51293            0     10.51293 0.0016699395 
Loop time of 0.015501 on 1 procs for 1000 steps with 2 atoms

Performance: 5573833.951 tau/day, 64511.967 timesteps/s
100.8% CPU use with 1 MPI tasks x 1 OpenMP threads

MPI task timing breakdown:
Section |  min time  |  avg time  |  max time  |%varavg| %total
---------------------------------------------------------------
Pair    | 0.002394   | 0.002394   | 0.002394   |   0.0 | 15.44
Bond    | 0.001388   | 0.001388   | 0.001388   |   0.0 |  8.95
Neigh   | 0          | 0          | 0          |   0.0 |  0.00
Comm    | 0.002564   | 0.002564   | 0.002564   |   0.0 | 16.54
Output  | 0.002519   | 0.002519   | 0.002519   |   0.0 | 16.25
Modify  | 0.002575   | 0.002575   | 0.002575   |   0.0 | 16.61
Other   |            | 0.004061   |            |       | 26.20

Nlocal:    2 ave 2 max 2 min
Histogram: 1 0 0 0 0 0 0 0 0 0
Nghost:    0 ave 0 max 0 min
Histogram: 1 0 0 0 0 0 0 0 0 0
Neighs:    1 ave 1 max 1 min
Histogram: 1 0 0 0 0 0 0 0 0 0

Total # of neighbors = 1
Ave neighs/atom = 0.5
Ave special neighs/atom = 0
Neighbor list builds = 0
Dangerous builds = 0
Displacing atoms ...
Neighbor list info ...
  update every 1 steps, delay 10 steps, check yes
  max neighbors/atom: 2000, page size: 100000
  master list distance cutoff = 2.8
  ghost atom cutoff = 2.8
  binsize = 1.4, bins = 29 29 29
  6 neighbor lists, perpetual/occasional/extra = 5 1 0
  (1) pair lj/expand/twopiece, perpetual, skip from (6)
      attributes: half, newton on
      pair build: skip
      stencil: none
      bin: none
  (2) pair soft/shift, perpetual, skip from (6)
      attributes: half, newton on
      pair build: skip
      stencil: none
      bin: none
  (3) pair zero, perpetual, skip from (6)
      attributes: half, newton on
      pair build: skip
      stencil: none
      bin: none
  (4) pair morse, perpetual, skip from (6)
      attributes: half, newton on
      pair build: skip
      stencil: none
      bin: none
  (5) compute pair/local, occasional, copy from (6)
      attributes: half, newton on
      pair build: copy
      stencil: none
      bin: none
  (6) neighbor class addition, perpetual
      attributes: half, newton on
      pair build: half/bin/newton
      stencil: half/bin/3d/newton
      bin: standard
Setting up Verlet run ...
  Unit style    : lj
  Current step  : 80000
  Time step     : 0.001
Per MPI rank memory allocation (min/avg/max) = 9.201 | 9.201 | 9.201 Mbytes
Step Temp E_pair E_mol TotEng Press 
   80000            0    21.474436            0    21.474436 0.0031611416 
   80200            0    21.474436            0    21.474436 0.0031611416 
   80400            0    21.474436            0    21.474436 0.0031611416 
   80600            0    21.474436            0    21.474436 0.0031611416 
   80800            0    21.474436            0    21.474436 0.0031611416 
   81000            0    21.474436            0    21.474436 0.0031611416 
Loop time of 0.014787 on 1 procs for 1000 steps with 2 atoms

Performance: 5842970.168 tau/day, 67626.970 timesteps/s
0.0% CPU use with 1 MPI tasks x 1 OpenMP threads

MPI task timing breakdown:
Section |  min time  |  avg time  |  max time  |%varavg| %total
---------------------------------------------------------------
Pair    | 0.00169    | 0.00169    | 0.00169    |   0.0 | 11.43
Bond    | 0.001338   | 0.001338   | 0.001338   |   0.0 |  9.05
Neigh   | 0          | 0          | 0          |   0.0 |  0.00
Comm    | 0.002496   | 0.002496   | 0.002496   |   0.0 | 16.88
Output  | 0.002799   | 0.002799   | 0.002799   |   0.0 | 18.93
Modify  | 0.002547   | 0.002547   | 0.002547   |   0.0 | 17.22
Other   |            | 0.003917   |            |       | 26.49

Nlocal:    2 ave 2 max 2 min
Histogram: 1 0 0 0 0 0 0 0 0 0
Nghost:    0 ave 0 max 0 min
Histogram: 1 0 0 0 0 0 0 0 0 0
Neighs:    1 ave 1 max 1 min
Histogram: 1 0 0 0 0 0 0 0 0 0

Total # of neighbors = 1
Ave neighs/atom = 0.5
Ave special neighs/atom = 0
Neighbor list builds = 0
Dangerous builds = 0
Total wall time: 0:00:01
