LAMMPS (7 Aug 2019)
OMP_NUM_THREADS environment is not set. Defaulting to 1 thread. (src/comm.cpp:93)
  using 1 OpenMP thread(s) per MPI task
Reading data file ...
  orthogonal box = (-20 -20 -20) to (20 20 20)
  1 by 1 by 1 MPI processor grid
  reading atoms ...
  2 atoms
Finding 1-2 1-3 1-4 neighbors ...
  special bond factors lj:   0          0          0         
  special bond factors coul: 0          0          0         
  0 = max # of 1-2 neighbors
  0 = max # of 1-3 neighbors
  0 = max # of 1-4 neighbors
  1 = max # of special neighbors
  special bonds CPU = 1.88351e-05 secs
  read_data CPU = 0.000431061 secs
1 atoms in group atom1
1 atoms in group atom2
Neighbor list info ...
  update every 1 steps, delay 10 steps, check yes
  max neighbors/atom: 2000, page size: 100000
  master list distance cutoff = 2.8
  ghost atom cutoff = 2.8
  binsize = 1.4, bins = 29 29 29
  6 neighbor lists, perpetual/occasional/extra = 5 1 0
  (1) pair lj/expand/twopiece, perpetual, skip from (6)
      attributes: half, newton on
      pair build: skip
      stencil: none
      bin: none
  (2) pair soft/shift, perpetual, skip from (6)
      attributes: half, newton on
      pair build: skip
      stencil: none
      bin: none
  (3) pair zero, perpetual, skip from (6)
      attributes: half, newton on
      pair build: skip
      stencil: none
      bin: none
  (4) pair morse, perpetual, skip from (6)
      attributes: half, newton on
      pair build: skip
      stencil: none
      bin: none
  (5) compute pair/local, occasional, copy from (6)
      attributes: half, newton on
      pair build: copy
      stencil: none
      bin: none
  (6) neighbor class addition, perpetual
      attributes: half, newton on
      pair build: half/bin/newton
      stencil: half/bin/3d/newton
      bin: standard
Setting up Verlet run ...
  Unit style    : lj
  Current step  : 0
  Time step     : 0.001
Per MPI rank memory allocation (min/avg/max) = 8.333 | 8.333 | 8.333 Mbytes
Step Temp E_pair E_mol TotEng Press 
       0            0 -0.00048816204            0 -0.00048816204 -3.0502677e-08 
     200            0 -0.00048816204            0 -0.00048816204 -3.0502677e-08 
     400            0 -0.00048816204            0 -0.00048816204 -3.0502677e-08 
     600            0 -0.00048816204            0 -0.00048816204 -3.0502677e-08 
     800            0 -0.00048816204            0 -0.00048816204 -3.0502677e-08 
    1000            0 -0.00048816204            0 -0.00048816204 -3.0502677e-08 
Loop time of 0.00490713 on 1 procs for 1000 steps with 2 atoms

Performance: 17607028.744 tau/day, 203785.055 timesteps/s
0.0% CPU use with 1 MPI tasks x 1 OpenMP threads

MPI task timing breakdown:
Section |  min time  |  avg time  |  max time  |%varavg| %total
---------------------------------------------------------------
Pair    | 0.00063348 | 0.00063348 | 0.00063348 |   0.0 | 12.91
Bond    | 0.00039887 | 0.00039887 | 0.00039887 |   0.0 |  8.13
Neigh   | 0          | 0          | 0          |   0.0 |  0.00
Comm    | 0.00064039 | 0.00064039 | 0.00064039 |   0.0 | 13.05
Output  | 0.0016594  | 0.0016594  | 0.0016594  |   0.0 | 33.82
Modify  | 0.00061417 | 0.00061417 | 0.00061417 |   0.0 | 12.52
Other   |            | 0.0009608  |            |       | 19.58

Nlocal:    2 ave 2 max 2 min
Histogram: 1 0 0 0 0 0 0 0 0 0
Nghost:    0 ave 0 max 0 min
Histogram: 1 0 0 0 0 0 0 0 0 0
Neighs:    1 ave 1 max 1 min
Histogram: 1 0 0 0 0 0 0 0 0 0

Total # of neighbors = 1
Ave neighs/atom = 0.5
Ave special neighs/atom = 0
Neighbor list builds = 0
Dangerous builds = 0
Displacing atoms ...
Neighbor list info ...
  update every 1 steps, delay 10 steps, check yes
  max neighbors/atom: 2000, page size: 100000
  master list distance cutoff = 2.8
  ghost atom cutoff = 2.8
  binsize = 1.4, bins = 29 29 29
  6 neighbor lists, perpetual/occasional/extra = 5 1 0
  (1) pair lj/expand/twopiece, perpetual, skip from (6)
      attributes: half, newton on
      pair build: skip
      stencil: none
      bin: none
  (2) pair soft/shift, perpetual, skip from (6)
      attributes: half, newton on
      pair build: skip
      stencil: none
      bin: none
  (3) pair zero, perpetual, skip from (6)
      attributes: half, newton on
      pair build: skip
      stencil: none
      bin: none
  (4) pair morse, perpetual, skip from (6)
      attributes: half, newton on
      pair build: skip
      stencil: none
      bin: none
  (5) compute pair/local, occasional, copy from (6)
      attributes: half, newton on
      pair build: copy
      stencil: none
      bin: none
  (6) neighbor class addition, perpetual
      attributes: half, newton on
      pair build: half/bin/newton
      stencil: half/bin/3d/newton
      bin: standard
Setting up Verlet run ...
  Unit style    : lj
  Current step  : 1000
  Time step     : 0.001
Per MPI rank memory allocation (min/avg/max) = 9.201 | 9.201 | 9.201 Mbytes
Step Temp E_pair E_mol TotEng Press 
    1000            0 -0.000518497            0 -0.000518497 -3.2397657e-08 
    1200            0 -0.000518497            0 -0.000518497 -3.2397657e-08 
    1400            0 -0.000518497            0 -0.000518497 -3.2397657e-08 
    1600            0 -0.000518497            0 -0.000518497 -3.2397657e-08 
    1800            0 -0.000518497            0 -0.000518497 -3.2397657e-08 
    2000            0 -0.000518497            0 -0.000518497 -3.2397657e-08 
Loop time of 0.00473595 on 1 procs for 1000 steps with 2 atoms

Performance: 18243448.731 tau/day, 211151.027 timesteps/s
0.0% CPU use with 1 MPI tasks x 1 OpenMP threads

MPI task timing breakdown:
Section |  min time  |  avg time  |  max time  |%varavg| %total
---------------------------------------------------------------
Pair    | 0.00059533 | 0.00059533 | 0.00059533 |   0.0 | 12.57
Bond    | 0.00037169 | 0.00037169 | 0.00037169 |   0.0 |  7.85
Neigh   | 0          | 0          | 0          |   0.0 |  0.00
Comm    | 0.00059772 | 0.00059772 | 0.00059772 |   0.0 | 12.62
Output  | 0.0017028  | 0.0017028  | 0.0017028  |   0.0 | 35.95
Modify  | 0.00057888 | 0.00057888 | 0.00057888 |   0.0 | 12.22
Other   |            | 0.0008895  |            |       | 18.78

Nlocal:    2 ave 2 max 2 min
Histogram: 1 0 0 0 0 0 0 0 0 0
Nghost:    0 ave 0 max 0 min
Histogram: 1 0 0 0 0 0 0 0 0 0
Neighs:    1 ave 1 max 1 min
Histogram: 1 0 0 0 0 0 0 0 0 0

Total # of neighbors = 1
Ave neighs/atom = 0.5
Ave special neighs/atom = 0
Neighbor list builds = 0
Dangerous builds = 0
Displacing atoms ...
Neighbor list info ...
  update every 1 steps, delay 10 steps, check yes
  max neighbors/atom: 2000, page size: 100000
  master list distance cutoff = 2.8
  ghost atom cutoff = 2.8
  binsize = 1.4, bins = 29 29 29
  6 neighbor lists, perpetual/occasional/extra = 5 1 0
  (1) pair lj/expand/twopiece, perpetual, skip from (6)
      attributes: half, newton on
      pair build: skip
      stencil: none
      bin: none
  (2) pair soft/shift, perpetual, skip from (6)
      attributes: half, newton on
      pair build: skip
      stencil: none
      bin: none
  (3) pair zero, perpetual, skip from (6)
      attributes: half, newton on
      pair build: skip
      stencil: none
      bin: none
  (4) pair morse, perpetual, skip from (6)
      attributes: half, newton on
      pair build: skip
      stencil: none
      bin: none
  (5) compute pair/local, occasional, copy from (6)
      attributes: half, newton on
      pair build: copy
      stencil: none
      bin: none
  (6) neighbor class addition, perpetual
      attributes: half, newton on
      pair build: half/bin/newton
      stencil: half/bin/3d/newton
      bin: standard
Setting up Verlet run ...
  Unit style    : lj
  Current step  : 2000
  Time step     : 0.001
Per MPI rank memory allocation (min/avg/max) = 9.201 | 9.201 | 9.201 Mbytes
Step Temp E_pair E_mol TotEng Press 
    2000            0 -0.00055105365            0 -0.00055105365 -3.4431359e-08 
    2200            0 -0.00055105365            0 -0.00055105365 -3.4431359e-08 
    2400            0 -0.00055105365            0 -0.00055105365 -3.4431359e-08 
    2600            0 -0.00055105365            0 -0.00055105365 -3.4431359e-08 
    2800            0 -0.00055105365            0 -0.00055105365 -3.4431359e-08 
    3000            0 -0.00055105365            0 -0.00055105365 -3.4431359e-08 
Loop time of 0.00421906 on 1 procs for 1000 steps with 2 atoms

Performance: 20478518.626 tau/day, 237019.892 timesteps/s
0.0% CPU use with 1 MPI tasks x 1 OpenMP threads

MPI task timing breakdown:
Section |  min time  |  avg time  |  max time  |%varavg| %total
---------------------------------------------------------------
Pair    | 0.00053191 | 0.00053191 | 0.00053191 |   0.0 | 12.61
Bond    | 0.00031829 | 0.00031829 | 0.00031829 |   0.0 |  7.54
Neigh   | 0          | 0          | 0          |   0.0 |  0.00
Comm    | 0.0005374  | 0.0005374  | 0.0005374  |   0.0 | 12.74
Output  | 0.0014062  | 0.0014062  | 0.0014062  |   0.0 | 33.33
Modify  | 0.00054789 | 0.00054789 | 0.00054789 |   0.0 | 12.99
Other   |            | 0.0008774  |            |       | 20.80

Nlocal:    2 ave 2 max 2 min
Histogram: 1 0 0 0 0 0 0 0 0 0
Nghost:    0 ave 0 max 0 min
Histogram: 1 0 0 0 0 0 0 0 0 0
Neighs:    1 ave 1 max 1 min
Histogram: 1 0 0 0 0 0 0 0 0 0

Total # of neighbors = 1
Ave neighs/atom = 0.5
Ave special neighs/atom = 0
Neighbor list builds = 0
Dangerous builds = 0
Displacing atoms ...
Neighbor list info ...
  update every 1 steps, delay 10 steps, check yes
  max neighbors/atom: 2000, page size: 100000
  master list distance cutoff = 2.8
  ghost atom cutoff = 2.8
  binsize = 1.4, bins = 29 29 29
  6 neighbor lists, perpetual/occasional/extra = 5 1 0
  (1) pair lj/expand/twopiece, perpetual, skip from (6)
      attributes: half, newton on
      pair build: skip
      stencil: none
      bin: none
  (2) pair soft/shift, perpetual, skip from (6)
      attributes: half, newton on
      pair build: skip
      stencil: none
      bin: none
  (3) pair zero, perpetual, skip from (6)
      attributes: half, newton on
      pair build: skip
      stencil: none
      bin: none
  (4) pair morse, perpetual, skip from (6)
      attributes: half, newton on
      pair build: skip
      stencil: none
      bin: none
  (5) compute pair/local, occasional, copy from (6)
      attributes: half, newton on
      pair build: copy
      stencil: none
      bin: none
  (6) neighbor class addition, perpetual
      attributes: half, newton on
      pair build: half/bin/newton
      stencil: half/bin/3d/newton
      bin: standard
Setting up Verlet run ...
  Unit style    : lj
  Current step  : 3000
  Time step     : 0.001
Per MPI rank memory allocation (min/avg/max) = 9.201 | 9.201 | 9.201 Mbytes
Step Temp E_pair E_mol TotEng Press 
    3000            0 -0.00058601986            0 -0.00058601986 -3.6615503e-08 
    3200            0 -0.00058601986            0 -0.00058601986 -3.6615503e-08 
    3400            0 -0.00058601986            0 -0.00058601986 -3.6615503e-08 
    3600            0 -0.00058601986            0 -0.00058601986 -3.6615503e-08 
    3800            0 -0.00058601986            0 -0.00058601986 -3.6615503e-08 
    4000            0 -0.00058601986            0 -0.00058601986 -3.6615503e-08 
Loop time of 0.00513387 on 1 procs for 1000 steps with 2 atoms

Performance: 16829418.363 tau/day, 194784.935 timesteps/s
0.0% CPU use with 1 MPI tasks x 1 OpenMP threads

MPI task timing breakdown:
Section |  min time  |  avg time  |  max time  |%varavg| %total
---------------------------------------------------------------
Pair    | 0.00064158 | 0.00064158 | 0.00064158 |   0.0 | 12.50
Bond    | 0.0003531  | 0.0003531  | 0.0003531  |   0.0 |  6.88
Neigh   | 0          | 0          | 0          |   0.0 |  0.00
Comm    | 0.00064778 | 0.00064778 | 0.00064778 |   0.0 | 12.62
Output  | 0.0018978  | 0.0018978  | 0.0018978  |   0.0 | 36.97
Modify  | 0.00060225 | 0.00060225 | 0.00060225 |   0.0 | 11.73
Other   |            | 0.0009913  |            |       | 19.31

Nlocal:    2 ave 2 max 2 min
Histogram: 1 0 0 0 0 0 0 0 0 0
Nghost:    0 ave 0 max 0 min
Histogram: 1 0 0 0 0 0 0 0 0 0
Neighs:    1 ave 1 max 1 min
Histogram: 1 0 0 0 0 0 0 0 0 0

Total # of neighbors = 1
Ave neighs/atom = 0.5
Ave special neighs/atom = 0
Neighbor list builds = 0
Dangerous builds = 0
Displacing atoms ...
Neighbor list info ...
  update every 1 steps, delay 10 steps, check yes
  max neighbors/atom: 2000, page size: 100000
  master list distance cutoff = 2.8
  ghost atom cutoff = 2.8
  binsize = 1.4, bins = 29 29 29
  6 neighbor lists, perpetual/occasional/extra = 5 1 0
  (1) pair lj/expand/twopiece, perpetual, skip from (6)
      attributes: half, newton on
      pair build: skip
      stencil: none
      bin: none
  (2) pair soft/shift, perpetual, skip from (6)
      attributes: half, newton on
      pair build: skip
      stencil: none
      bin: none
  (3) pair zero, perpetual, skip from (6)
      attributes: half, newton on
      pair build: skip
      stencil: none
      bin: none
  (4) pair morse, perpetual, skip from (6)
      attributes: half, newton on
      pair build: skip
      stencil: none
      bin: none
  (5) compute pair/local, occasional, copy from (6)
      attributes: half, newton on
      pair build: copy
      stencil: none
      bin: none
  (6) neighbor class addition, perpetual
      attributes: half, newton on
      pair build: half/bin/newton
      stencil: half/bin/3d/newton
      bin: standard
Setting up Verlet run ...
  Unit style    : lj
  Current step  : 4000
  Time step     : 0.001
Per MPI rank memory allocation (min/avg/max) = 9.201 | 9.201 | 9.201 Mbytes
Step Temp E_pair E_mol TotEng Press 
    4000            0 -0.00062360153            0 -0.00062360153 -3.8962936e-08 
    4200            0 -0.00062360153            0 -0.00062360153 -3.8962936e-08 
    4400            0 -0.00062360153            0 -0.00062360153 -3.8962936e-08 
    4600            0 -0.00062360153            0 -0.00062360153 -3.8962936e-08 
    4800            0 -0.00062360153            0 -0.00062360153 -3.8962936e-08 
    5000            0 -0.00062360153            0 -0.00062360153 -3.8962936e-08 
Loop time of 0.00427508 on 1 procs for 1000 steps with 2 atoms

Performance: 20210131.370 tau/day, 233913.558 timesteps/s
0.0% CPU use with 1 MPI tasks x 1 OpenMP threads

MPI task timing breakdown:
Section |  min time  |  avg time  |  max time  |%varavg| %total
---------------------------------------------------------------
Pair    | 0.00052142 | 0.00052142 | 0.00052142 |   0.0 | 12.20
Bond    | 0.00032234 | 0.00032234 | 0.00032234 |   0.0 |  7.54
Neigh   | 0          | 0          | 0          |   0.0 |  0.00
Comm    | 0.00055099 | 0.00055099 | 0.00055099 |   0.0 | 12.89
Output  | 0.0014277  | 0.0014277  | 0.0014277  |   0.0 | 33.39
Modify  | 0.0005908  | 0.0005908  | 0.0005908  |   0.0 | 13.82
Other   |            | 0.0008619  |            |       | 20.16

Nlocal:    2 ave 2 max 2 min
Histogram: 1 0 0 0 0 0 0 0 0 0
Nghost:    0 ave 0 max 0 min
Histogram: 1 0 0 0 0 0 0 0 0 0
Neighs:    1 ave 1 max 1 min
Histogram: 1 0 0 0 0 0 0 0 0 0

Total # of neighbors = 1
Ave neighs/atom = 0.5
Ave special neighs/atom = 0
Neighbor list builds = 0
Dangerous builds = 0
Displacing atoms ...
Neighbor list info ...
  update every 1 steps, delay 10 steps, check yes
  max neighbors/atom: 2000, page size: 100000
  master list distance cutoff = 2.8
  ghost atom cutoff = 2.8
  binsize = 1.4, bins = 29 29 29
  6 neighbor lists, perpetual/occasional/extra = 5 1 0
  (1) pair lj/expand/twopiece, perpetual, skip from (6)
      attributes: half, newton on
      pair build: skip
      stencil: none
      bin: none
  (2) pair soft/shift, perpetual, skip from (6)
      attributes: half, newton on
      pair build: skip
      stencil: none
      bin: none
  (3) pair zero, perpetual, skip from (6)
      attributes: half, newton on
      pair build: skip
      stencil: none
      bin: none
  (4) pair morse, perpetual, skip from (6)
      attributes: half, newton on
      pair build: skip
      stencil: none
      bin: none
  (5) compute pair/local, occasional, copy from (6)
      attributes: half, newton on
      pair build: copy
      stencil: none
      bin: none
  (6) neighbor class addition, perpetual
      attributes: half, newton on
      pair build: half/bin/newton
      stencil: half/bin/3d/newton
      bin: standard
Setting up Verlet run ...
  Unit style    : lj
  Current step  : 5000
  Time step     : 0.001
Per MPI rank memory allocation (min/avg/max) = 9.201 | 9.201 | 9.201 Mbytes
Step Temp E_pair E_mol TotEng Press 
    5000            0 -0.00066402458            0 -0.00066402458 -4.1487748e-08 
    5200            0 -0.00066402458            0 -0.00066402458 -4.1487748e-08 
    5400            0 -0.00066402458            0 -0.00066402458 -4.1487748e-08 
    5600            0 -0.00066402458            0 -0.00066402458 -4.1487748e-08 
    5800            0 -0.00066402458            0 -0.00066402458 -4.1487748e-08 
    6000            0 -0.00066402458            0 -0.00066402458 -4.1487748e-08 
Loop time of 0.00393796 on 1 procs for 1000 steps with 2 atoms

Performance: 21940295.792 tau/day, 253938.609 timesteps/s
0.0% CPU use with 1 MPI tasks x 1 OpenMP threads

MPI task timing breakdown:
Section |  min time  |  avg time  |  max time  |%varavg| %total
---------------------------------------------------------------
Pair    | 0.00049591 | 0.00049591 | 0.00049591 |   0.0 | 12.59
Bond    | 0.00031877 | 0.00031877 | 0.00031877 |   0.0 |  8.09
Neigh   | 0          | 0          | 0          |   0.0 |  0.00
Comm    | 0.00052309 | 0.00052309 | 0.00052309 |   0.0 | 13.28
Output  | 0.0012438  | 0.0012438  | 0.0012438  |   0.0 | 31.59
Modify  | 0.00052261 | 0.00052261 | 0.00052261 |   0.0 | 13.27
Other   |            | 0.0008337  |            |       | 21.17

Nlocal:    2 ave 2 max 2 min
Histogram: 1 0 0 0 0 0 0 0 0 0
Nghost:    0 ave 0 max 0 min
Histogram: 1 0 0 0 0 0 0 0 0 0
Neighs:    1 ave 1 max 1 min
Histogram: 1 0 0 0 0 0 0 0 0 0

Total # of neighbors = 1
Ave neighs/atom = 0.5
Ave special neighs/atom = 0
Neighbor list builds = 0
Dangerous builds = 0
Displacing atoms ...
Neighbor list info ...
  update every 1 steps, delay 10 steps, check yes
  max neighbors/atom: 2000, page size: 100000
  master list distance cutoff = 2.8
  ghost atom cutoff = 2.8
  binsize = 1.4, bins = 29 29 29
  6 neighbor lists, perpetual/occasional/extra = 5 1 0
  (1) pair lj/expand/twopiece, perpetual, skip from (6)
      attributes: half, newton on
      pair build: skip
      stencil: none
      bin: none
  (2) pair soft/shift, perpetual, skip from (6)
      attributes: half, newton on
      pair build: skip
      stencil: none
      bin: none
  (3) pair zero, perpetual, skip from (6)
      attributes: half, newton on
      pair build: skip
      stencil: none
      bin: none
  (4) pair morse, perpetual, skip from (6)
      attributes: half, newton on
      pair build: skip
      stencil: none
      bin: none
  (5) compute pair/local, occasional, copy from (6)
      attributes: half, newton on
      pair build: copy
      stencil: none
      bin: none
  (6) neighbor class addition, perpetual
      attributes: half, newton on
      pair build: half/bin/newton
      stencil: half/bin/3d/newton
      bin: standard
Setting up Verlet run ...
  Unit style    : lj
  Current step  : 6000
  Time step     : 0.001
Per MPI rank memory allocation (min/avg/max) = 9.201 | 9.201 | 9.201 Mbytes
Step Temp E_pair E_mol TotEng Press 
    6000            0 -0.00070753708            0 -0.00070753708 -4.4205412e-08 
    6200            0 -0.00070753708            0 -0.00070753708 -4.4205412e-08 
    6400            0 -0.00070753708            0 -0.00070753708 -4.4205412e-08 
    6600            0 -0.00070753708            0 -0.00070753708 -4.4205412e-08 
    6800            0 -0.00070753708            0 -0.00070753708 -4.4205412e-08 
    7000            0 -0.00070753708            0 -0.00070753708 -4.4205412e-08 
Loop time of 0.00397491 on 1 procs for 1000 steps with 2 atoms

Performance: 21736316.315 tau/day, 251577.735 timesteps/s
0.0% CPU use with 1 MPI tasks x 1 OpenMP threads

MPI task timing breakdown:
Section |  min time  |  avg time  |  max time  |%varavg| %total
---------------------------------------------------------------
Pair    | 0.0005095  | 0.0005095  | 0.0005095  |   0.0 | 12.82
Bond    | 0.00030804 | 0.00030804 | 0.00030804 |   0.0 |  7.75
Neigh   | 0          | 0          | 0          |   0.0 |  0.00
Comm    | 0.00053811 | 0.00053811 | 0.00053811 |   0.0 | 13.54
Output  | 0.0012565  | 0.0012565  | 0.0012565  |   0.0 | 31.61
Modify  | 0.00053    | 0.00053    | 0.00053    |   0.0 | 13.33
Other   |            | 0.0008328  |            |       | 20.95

Nlocal:    2 ave 2 max 2 min
Histogram: 1 0 0 0 0 0 0 0 0 0
Nghost:    0 ave 0 max 0 min
Histogram: 1 0 0 0 0 0 0 0 0 0
Neighs:    1 ave 1 max 1 min
Histogram: 1 0 0 0 0 0 0 0 0 0

Total # of neighbors = 1
Ave neighs/atom = 0.5
Ave special neighs/atom = 0
Neighbor list builds = 0
Dangerous builds = 0
Displacing atoms ...
Neighbor list info ...
  update every 1 steps, delay 10 steps, check yes
  max neighbors/atom: 2000, page size: 100000
  master list distance cutoff = 2.8
  ghost atom cutoff = 2.8
  binsize = 1.4, bins = 29 29 29
  6 neighbor lists, perpetual/occasional/extra = 5 1 0
  (1) pair lj/expand/twopiece, perpetual, skip from (6)
      attributes: half, newton on
      pair build: skip
      stencil: none
      bin: none
  (2) pair soft/shift, perpetual, skip from (6)
      attributes: half, newton on
      pair build: skip
      stencil: none
      bin: none
  (3) pair zero, perpetual, skip from (6)
      attributes: half, newton on
      pair build: skip
      stencil: none
      bin: none
  (4) pair morse, perpetual, skip from (6)
      attributes: half, newton on
      pair build: skip
      stencil: none
      bin: none
  (5) compute pair/local, occasional, copy from (6)
      attributes: half, newton on
      pair build: copy
      stencil: none
      bin: none
  (6) neighbor class addition, perpetual
      attributes: half, newton on
      pair build: half/bin/newton
      stencil: half/bin/3d/newton
      bin: standard
Setting up Verlet run ...
  Unit style    : lj
  Current step  : 7000
  Time step     : 0.001
Per MPI rank memory allocation (min/avg/max) = 9.201 | 9.201 | 9.201 Mbytes
Step Temp E_pair E_mol TotEng Press 
    7000            0 -0.00075441175            0 -0.00075441175 -4.7132936e-08 
    7200            0 -0.00075441175            0 -0.00075441175 -4.7132936e-08 
    7400            0 -0.00075441175            0 -0.00075441175 -4.7132936e-08 
    7600            0 -0.00075441175            0 -0.00075441175 -4.7132936e-08 
    7800            0 -0.00075441175            0 -0.00075441175 -4.7132936e-08 
    8000            0 -0.00075441175            0 -0.00075441175 -4.7132936e-08 
Loop time of 0.00386095 on 1 procs for 1000 steps with 2 atoms

Performance: 22377909.448 tau/day, 259003.582 timesteps/s
0.0% CPU use with 1 MPI tasks x 1 OpenMP threads

MPI task timing breakdown:
Section |  min time  |  avg time  |  max time  |%varavg| %total
---------------------------------------------------------------
Pair    | 0.00048304 | 0.00048304 | 0.00048304 |   0.0 | 12.51
Bond    | 0.00030756 | 0.00030756 | 0.00030756 |   0.0 |  7.97
Neigh   | 0          | 0          | 0          |   0.0 |  0.00
Comm    | 0.00053906 | 0.00053906 | 0.00053906 |   0.0 | 13.96
Output  | 0.0011842  | 0.0011842  | 0.0011842  |   0.0 | 30.67
Modify  | 0.00052786 | 0.00052786 | 0.00052786 |   0.0 | 13.67
Other   |            | 0.0008192  |            |       | 21.22

Nlocal:    2 ave 2 max 2 min
Histogram: 1 0 0 0 0 0 0 0 0 0
Nghost:    0 ave 0 max 0 min
Histogram: 1 0 0 0 0 0 0 0 0 0
Neighs:    1 ave 1 max 1 min
Histogram: 1 0 0 0 0 0 0 0 0 0

Total # of neighbors = 1
Ave neighs/atom = 0.5
Ave special neighs/atom = 0
Neighbor list builds = 0
Dangerous builds = 0
Displacing atoms ...
Neighbor list info ...
  update every 1 steps, delay 10 steps, check yes
  max neighbors/atom: 2000, page size: 100000
  master list distance cutoff = 2.8
  ghost atom cutoff = 2.8
  binsize = 1.4, bins = 29 29 29
  6 neighbor lists, perpetual/occasional/extra = 5 1 0
  (1) pair lj/expand/twopiece, perpetual, skip from (6)
      attributes: half, newton on
      pair build: skip
      stencil: none
      bin: none
  (2) pair soft/shift, perpetual, skip from (6)
      attributes: half, newton on
      pair build: skip
      stencil: none
      bin: none
  (3) pair zero, perpetual, skip from (6)
      attributes: half, newton on
      pair build: skip
      stencil: none
      bin: none
  (4) pair morse, perpetual, skip from (6)
      attributes: half, newton on
      pair build: skip
      stencil: none
      bin: none
  (5) compute pair/local, occasional, copy from (6)
      attributes: half, newton on
      pair build: copy
      stencil: none
      bin: none
  (6) neighbor class addition, perpetual
      attributes: half, newton on
      pair build: half/bin/newton
      stencil: half/bin/3d/newton
      bin: standard
Setting up Verlet run ...
  Unit style    : lj
  Current step  : 8000
  Time step     : 0.001
Per MPI rank memory allocation (min/avg/max) = 9.201 | 9.201 | 9.201 Mbytes
Step Temp E_pair E_mol TotEng Press 
    8000            0 -0.00080494867            0 -0.00080494867 -5.0289027e-08 
    8200            0 -0.00080494867            0 -0.00080494867 -5.0289027e-08 
    8400            0 -0.00080494867            0 -0.00080494867 -5.0289027e-08 
    8600            0 -0.00080494867            0 -0.00080494867 -5.0289027e-08 
    8800            0 -0.00080494867            0 -0.00080494867 -5.0289027e-08 
    9000            0 -0.00080494867            0 -0.00080494867 -5.0289027e-08 
Loop time of 0.00437617 on 1 procs for 1000 steps with 2 atoms

Performance: 19743277.886 tau/day, 228510.161 timesteps/s
0.0% CPU use with 1 MPI tasks x 1 OpenMP threads

MPI task timing breakdown:
Section |  min time  |  avg time  |  max time  |%varavg| %total
---------------------------------------------------------------
Pair    | 0.00054622 | 0.00054622 | 0.00054622 |   0.0 | 12.48
Bond    | 0.00031924 | 0.00031924 | 0.00031924 |   0.0 |  7.30
Neigh   | 0          | 0          | 0          |   0.0 |  0.00
Comm    | 0.00054049 | 0.00054049 | 0.00054049 |   0.0 | 12.35
Output  | 0.0015314  | 0.0015314  | 0.0015314  |   0.0 | 34.99
Modify  | 0.00055075 | 0.00055075 | 0.00055075 |   0.0 | 12.59
Other   |            | 0.0008881  |            |       | 20.29

Nlocal:    2 ave 2 max 2 min
Histogram: 1 0 0 0 0 0 0 0 0 0
Nghost:    0 ave 0 max 0 min
Histogram: 1 0 0 0 0 0 0 0 0 0
Neighs:    1 ave 1 max 1 min
Histogram: 1 0 0 0 0 0 0 0 0 0

Total # of neighbors = 1
Ave neighs/atom = 0.5
Ave special neighs/atom = 0
Neighbor list builds = 0
Dangerous builds = 0
Displacing atoms ...
Neighbor list info ...
  update every 1 steps, delay 10 steps, check yes
  max neighbors/atom: 2000, page size: 100000
  master list distance cutoff = 2.8
  ghost atom cutoff = 2.8
  binsize = 1.4, bins = 29 29 29
  6 neighbor lists, perpetual/occasional/extra = 5 1 0
  (1) pair lj/expand/twopiece, perpetual, skip from (6)
      attributes: half, newton on
      pair build: skip
      stencil: none
      bin: none
  (2) pair soft/shift, perpetual, skip from (6)
      attributes: half, newton on
      pair build: skip
      stencil: none
      bin: none
  (3) pair zero, perpetual, skip from (6)
      attributes: half, newton on
      pair build: skip
      stencil: none
      bin: none
  (4) pair morse, perpetual, skip from (6)
      attributes: half, newton on
      pair build: skip
      stencil: none
      bin: none
  (5) compute pair/local, occasional, copy from (6)
      attributes: half, newton on
      pair build: copy
      stencil: none
      bin: none
  (6) neighbor class addition, perpetual
      attributes: half, newton on
      pair build: half/bin/newton
      stencil: half/bin/3d/newton
      bin: standard
Setting up Verlet run ...
  Unit style    : lj
  Current step  : 9000
  Time step     : 0.001
Per MPI rank memory allocation (min/avg/max) = 9.201 | 9.201 | 9.201 Mbytes
Step Temp E_pair E_mol TotEng Press 
    9000            0 -0.00085947835            0 -0.00085947835 -5.3694292e-08 
    9200            0 -0.00085947835            0 -0.00085947835 -5.3694292e-08 
    9400            0 -0.00085947835            0 -0.00085947835 -5.3694292e-08 
    9600            0 -0.00085947835            0 -0.00085947835 -5.3694292e-08 
    9800            0 -0.00085947835            0 -0.00085947835 -5.3694292e-08 
   10000            0 -0.00085947835            0 -0.00085947835 -5.3694292e-08 
Loop time of 0.004776 on 1 procs for 1000 steps with 2 atoms

Performance: 18090448.562 tau/day, 209380.192 timesteps/s
0.0% CPU use with 1 MPI tasks x 1 OpenMP threads

MPI task timing breakdown:
Section |  min time  |  avg time  |  max time  |%varavg| %total
---------------------------------------------------------------
Pair    | 0.00059819 | 0.00059819 | 0.00059819 |   0.0 | 12.52
Bond    | 0.00033593 | 0.00033593 | 0.00033593 |   0.0 |  7.03
Neigh   | 0          | 0          | 0          |   0.0 |  0.00
Comm    | 0.00056815 | 0.00056815 | 0.00056815 |   0.0 | 11.90
Output  | 0.0017781  | 0.0017781  | 0.0017781  |   0.0 | 37.23
Modify  | 0.00059819 | 0.00059819 | 0.00059819 |   0.0 | 12.52
Other   |            | 0.0008974  |            |       | 18.79

Nlocal:    2 ave 2 max 2 min
Histogram: 1 0 0 0 0 0 0 0 0 0
Nghost:    0 ave 0 max 0 min
Histogram: 1 0 0 0 0 0 0 0 0 0
Neighs:    1 ave 1 max 1 min
Histogram: 1 0 0 0 0 0 0 0 0 0

Total # of neighbors = 1
Ave neighs/atom = 0.5
Ave special neighs/atom = 0
Neighbor list builds = 0
Dangerous builds = 0
Displacing atoms ...
Neighbor list info ...
  update every 1 steps, delay 10 steps, check yes
  max neighbors/atom: 2000, page size: 100000
  master list distance cutoff = 2.8
  ghost atom cutoff = 2.8
  binsize = 1.4, bins = 29 29 29
  6 neighbor lists, perpetual/occasional/extra = 5 1 0
  (1) pair lj/expand/twopiece, perpetual, skip from (6)
      attributes: half, newton on
      pair build: skip
      stencil: none
      bin: none
  (2) pair soft/shift, perpetual, skip from (6)
      attributes: half, newton on
      pair build: skip
      stencil: none
      bin: none
  (3) pair zero, perpetual, skip from (6)
      attributes: half, newton on
      pair build: skip
      stencil: none
      bin: none
  (4) pair morse, perpetual, skip from (6)
      attributes: half, newton on
      pair build: skip
      stencil: none
      bin: none
  (5) compute pair/local, occasional, copy from (6)
      attributes: half, newton on
      pair build: copy
      stencil: none
      bin: none
  (6) neighbor class addition, perpetual
      attributes: half, newton on
      pair build: half/bin/newton
      stencil: half/bin/3d/newton
      bin: standard
Setting up Verlet run ...
  Unit style    : lj
  Current step  : 10000
  Time step     : 0.001
Per MPI rank memory allocation (min/avg/max) = 9.201 | 9.201 | 9.201 Mbytes
Step Temp E_pair E_mol TotEng Press 
   10000            0 -0.00091836523            0 -0.00091836523 -5.7371447e-08 
   10200            0 -0.00091836523            0 -0.00091836523 -5.7371447e-08 
   10400            0 -0.00091836523            0 -0.00091836523 -5.7371447e-08 
   10600            0 -0.00091836523            0 -0.00091836523 -5.7371447e-08 
   10800            0 -0.00091836523            0 -0.00091836523 -5.7371447e-08 
   11000            0 -0.00091836523            0 -0.00091836523 -5.7371447e-08 
Loop time of 0.00446987 on 1 procs for 1000 steps with 2 atoms

Performance: 19329414.636 tau/day, 223720.077 timesteps/s
0.0% CPU use with 1 MPI tasks x 1 OpenMP threads

MPI task timing breakdown:
Section |  min time  |  avg time  |  max time  |%varavg| %total
---------------------------------------------------------------
Pair    | 0.0005734  | 0.0005734  | 0.0005734  |   0.0 | 12.83
Bond    | 0.00031948 | 0.00031948 | 0.00031948 |   0.0 |  7.15
Neigh   | 0          | 0          | 0          |   0.0 |  0.00
Comm    | 0.00056934 | 0.00056934 | 0.00056934 |   0.0 | 12.74
Output  | 0.0015392  | 0.0015392  | 0.0015392  |   0.0 | 34.44
Modify  | 0.00056648 | 0.00056648 | 0.00056648 |   0.0 | 12.67
Other   |            | 0.0009019  |            |       | 20.18

Nlocal:    2 ave 2 max 2 min
Histogram: 1 0 0 0 0 0 0 0 0 0
Nghost:    0 ave 0 max 0 min
Histogram: 1 0 0 0 0 0 0 0 0 0
Neighs:    1 ave 1 max 1 min
Histogram: 1 0 0 0 0 0 0 0 0 0

Total # of neighbors = 1
Ave neighs/atom = 0.5
Ave special neighs/atom = 0
Neighbor list builds = 0
Dangerous builds = 0
Displacing atoms ...
Neighbor list info ...
  update every 1 steps, delay 10 steps, check yes
  max neighbors/atom: 2000, page size: 100000
  master list distance cutoff = 2.8
  ghost atom cutoff = 2.8
  binsize = 1.4, bins = 29 29 29
  6 neighbor lists, perpetual/occasional/extra = 5 1 0
  (1) pair lj/expand/twopiece, perpetual, skip from (6)
      attributes: half, newton on
      pair build: skip
      stencil: none
      bin: none
  (2) pair soft/shift, perpetual, skip from (6)
      attributes: half, newton on
      pair build: skip
      stencil: none
      bin: none
  (3) pair zero, perpetual, skip from (6)
      attributes: half, newton on
      pair build: skip
      stencil: none
      bin: none
  (4) pair morse, perpetual, skip from (6)
      attributes: half, newton on
      pair build: skip
      stencil: none
      bin: none
  (5) compute pair/local, occasional, copy from (6)
      attributes: half, newton on
      pair build: copy
      stencil: none
      bin: none
  (6) neighbor class addition, perpetual
      attributes: half, newton on
      pair build: half/bin/newton
      stencil: half/bin/3d/newton
      bin: standard
Setting up Verlet run ...
  Unit style    : lj
  Current step  : 11000
  Time step     : 0.001
Per MPI rank memory allocation (min/avg/max) = 9.201 | 9.201 | 9.201 Mbytes
Step Temp E_pair E_mol TotEng Press 
   11000            0 -0.00098201158            0 -0.00098201158 -6.1345558e-08 
   11200            0 -0.00098201158            0 -0.00098201158 -6.1345558e-08 
   11400            0 -0.00098201158            0 -0.00098201158 -6.1345558e-08 
   11600            0 -0.00098201158            0 -0.00098201158 -6.1345558e-08 
   11800            0 -0.00098201158            0 -0.00098201158 -6.1345558e-08 
   12000            0 -0.00098201158            0 -0.00098201158 -6.1345558e-08 
Loop time of 0.00425792 on 1 procs for 1000 steps with 2 atoms

Performance: 20291610.146 tau/day, 234856.599 timesteps/s
0.0% CPU use with 1 MPI tasks x 1 OpenMP threads

MPI task timing breakdown:
Section |  min time  |  avg time  |  max time  |%varavg| %total
---------------------------------------------------------------
Pair    | 0.00054693 | 0.00054693 | 0.00054693 |   0.0 | 12.85
Bond    | 0.00032449 | 0.00032449 | 0.00032449 |   0.0 |  7.62
Neigh   | 0          | 0          | 0          |   0.0 |  0.00
Comm    | 0.00056481 | 0.00056481 | 0.00056481 |   0.0 | 13.27
Output  | 0.0013835  | 0.0013835  | 0.0013835  |   0.0 | 32.49
Modify  | 0.0005827  | 0.0005827  | 0.0005827  |   0.0 | 13.68
Other   |            | 0.0008554  |            |       | 20.09

Nlocal:    2 ave 2 max 2 min
Histogram: 1 0 0 0 0 0 0 0 0 0
Nghost:    0 ave 0 max 0 min
Histogram: 1 0 0 0 0 0 0 0 0 0
Neighs:    1 ave 1 max 1 min
Histogram: 1 0 0 0 0 0 0 0 0 0

Total # of neighbors = 1
Ave neighs/atom = 0.5
Ave special neighs/atom = 0
Neighbor list builds = 0
Dangerous builds = 0
Displacing atoms ...
Neighbor list info ...
  update every 1 steps, delay 10 steps, check yes
  max neighbors/atom: 2000, page size: 100000
  master list distance cutoff = 2.8
  ghost atom cutoff = 2.8
  binsize = 1.4, bins = 29 29 29
  6 neighbor lists, perpetual/occasional/extra = 5 1 0
  (1) pair lj/expand/twopiece, perpetual, skip from (6)
      attributes: half, newton on
      pair build: skip
      stencil: none
      bin: none
  (2) pair soft/shift, perpetual, skip from (6)
      attributes: half, newton on
      pair build: skip
      stencil: none
      bin: none
  (3) pair zero, perpetual, skip from (6)
      attributes: half, newton on
      pair build: skip
      stencil: none
      bin: none
  (4) pair morse, perpetual, skip from (6)
      attributes: half, newton on
      pair build: skip
      stencil: none
      bin: none
  (5) compute pair/local, occasional, copy from (6)
      attributes: half, newton on
      pair build: copy
      stencil: none
      bin: none
  (6) neighbor class addition, perpetual
      attributes: half, newton on
      pair build: half/bin/newton
      stencil: half/bin/3d/newton
      bin: standard
Setting up Verlet run ...
  Unit style    : lj
  Current step  : 12000
  Time step     : 0.001
Per MPI rank memory allocation (min/avg/max) = 9.201 | 9.201 | 9.201 Mbytes
Step Temp E_pair E_mol TotEng Press 
   12000            0 -0.0010508619            0 -0.0010508619 -6.5644322e-08 
   12200            0 -0.0010508619            0 -0.0010508619 -6.5644322e-08 
   12400            0 -0.0010508619            0 -0.0010508619 -6.5644322e-08 
   12600            0 -0.0010508619            0 -0.0010508619 -6.5644322e-08 
   12800            0 -0.0010508619            0 -0.0010508619 -6.5644322e-08 
   13000            0 -0.0010508619            0 -0.0010508619 -6.5644322e-08 
Loop time of 0.00404119 on 1 procs for 1000 steps with 2 atoms

Performance: 21379815.080 tau/day, 247451.563 timesteps/s
0.0% CPU use with 1 MPI tasks x 1 OpenMP threads

MPI task timing breakdown:
Section |  min time  |  avg time  |  max time  |%varavg| %total
---------------------------------------------------------------
Pair    | 0.00050306 | 0.00050306 | 0.00050306 |   0.0 | 12.45
Bond    | 0.00031948 | 0.00031948 | 0.00031948 |   0.0 |  7.91
Neigh   | 0          | 0          | 0          |   0.0 |  0.00
Comm    | 0.00054741 | 0.00054741 | 0.00054741 |   0.0 | 13.55
Output  | 0.0012727  | 0.0012727  | 0.0012727  |   0.0 | 31.49
Modify  | 0.00055194 | 0.00055194 | 0.00055194 |   0.0 | 13.66
Other   |            | 0.0008466  |            |       | 20.95

Nlocal:    2 ave 2 max 2 min
Histogram: 1 0 0 0 0 0 0 0 0 0
Nghost:    0 ave 0 max 0 min
Histogram: 1 0 0 0 0 0 0 0 0 0
Neighs:    1 ave 1 max 1 min
Histogram: 1 0 0 0 0 0 0 0 0 0

Total # of neighbors = 1
Ave neighs/atom = 0.5
Ave special neighs/atom = 0
Neighbor list builds = 0
Dangerous builds = 0
Displacing atoms ...
Neighbor list info ...
  update every 1 steps, delay 10 steps, check yes
  max neighbors/atom: 2000, page size: 100000
  master list distance cutoff = 2.8
  ghost atom cutoff = 2.8
  binsize = 1.4, bins = 29 29 29
  6 neighbor lists, perpetual/occasional/extra = 5 1 0
  (1) pair lj/expand/twopiece, perpetual, skip from (6)
      attributes: half, newton on
      pair build: skip
      stencil: none
      bin: none
  (2) pair soft/shift, perpetual, skip from (6)
      attributes: half, newton on
      pair build: skip
      stencil: none
      bin: none
  (3) pair zero, perpetual, skip from (6)
      attributes: half, newton on
      pair build: skip
      stencil: none
      bin: none
  (4) pair morse, perpetual, skip from (6)
      attributes: half, newton on
      pair build: skip
      stencil: none
      bin: none
  (5) compute pair/local, occasional, copy from (6)
      attributes: half, newton on
      pair build: copy
      stencil: none
      bin: none
  (6) neighbor class addition, perpetual
      attributes: half, newton on
      pair build: half/bin/newton
      stencil: half/bin/3d/newton
      bin: standard
Setting up Verlet run ...
  Unit style    : lj
  Current step  : 13000
  Time step     : 0.001
Per MPI rank memory allocation (min/avg/max) = 9.201 | 9.201 | 9.201 Mbytes
Step Temp E_pair E_mol TotEng Press 
   13000            0 -0.0011254079            0 -0.0011254079 -7.0298368e-08 
   13200            0 -0.0011254079            0 -0.0011254079 -7.0298368e-08 
   13400            0 -0.0011254079            0 -0.0011254079 -7.0298368e-08 
   13600            0 -0.0011254079            0 -0.0011254079 -7.0298368e-08 
   13800            0 -0.0011254079            0 -0.0011254079 -7.0298368e-08 
   14000            0 -0.0011254079            0 -0.0011254079 -7.0298368e-08 
Loop time of 0.0040741 on 1 procs for 1000 steps with 2 atoms

Performance: 21207155.056 tau/day, 245453.184 timesteps/s
0.0% CPU use with 1 MPI tasks x 1 OpenMP threads

MPI task timing breakdown:
Section |  min time  |  avg time  |  max time  |%varavg| %total
---------------------------------------------------------------
Pair    | 0.00053644 | 0.00053644 | 0.00053644 |   0.0 | 13.17
Bond    | 0.00031257 | 0.00031257 | 0.00031257 |   0.0 |  7.67
Neigh   | 0          | 0          | 0          |   0.0 |  0.00
Comm    | 0.00053525 | 0.00053525 | 0.00053525 |   0.0 | 13.14
Output  | 0.0012739  | 0.0012739  | 0.0012739  |   0.0 | 31.27
Modify  | 0.00055933 | 0.00055933 | 0.00055933 |   0.0 | 13.73
Other   |            | 0.0008566  |            |       | 21.03

Nlocal:    2 ave 2 max 2 min
Histogram: 1 0 0 0 0 0 0 0 0 0
Nghost:    0 ave 0 max 0 min
Histogram: 1 0 0 0 0 0 0 0 0 0
Neighs:    1 ave 1 max 1 min
Histogram: 1 0 0 0 0 0 0 0 0 0

Total # of neighbors = 1
Ave neighs/atom = 0.5
Ave special neighs/atom = 0
Neighbor list builds = 0
Dangerous builds = 0
Displacing atoms ...
Neighbor list info ...
  update every 1 steps, delay 10 steps, check yes
  max neighbors/atom: 2000, page size: 100000
  master list distance cutoff = 2.8
  ghost atom cutoff = 2.8
  binsize = 1.4, bins = 29 29 29
  6 neighbor lists, perpetual/occasional/extra = 5 1 0
  (1) pair lj/expand/twopiece, perpetual, skip from (6)
      attributes: half, newton on
      pair build: skip
      stencil: none
      bin: none
  (2) pair soft/shift, perpetual, skip from (6)
      attributes: half, newton on
      pair build: skip
      stencil: none
      bin: none
  (3) pair zero, perpetual, skip from (6)
      attributes: half, newton on
      pair build: skip
      stencil: none
      bin: none
  (4) pair morse, perpetual, skip from (6)
      attributes: half, newton on
      pair build: skip
      stencil: none
      bin: none
  (5) compute pair/local, occasional, copy from (6)
      attributes: half, newton on
      pair build: copy
      stencil: none
      bin: none
  (6) neighbor class addition, perpetual
      attributes: half, newton on
      pair build: half/bin/newton
      stencil: half/bin/3d/newton
      bin: standard
Setting up Verlet run ...
  Unit style    : lj
  Current step  : 14000
  Time step     : 0.001
Per MPI rank memory allocation (min/avg/max) = 9.201 | 9.201 | 9.201 Mbytes
Step Temp E_pair E_mol TotEng Press 
   14000            0 -0.001206194            0 -0.001206194 -7.5341607e-08 
   14200            0 -0.001206194            0 -0.001206194 -7.5341607e-08 
   14400            0 -0.001206194            0 -0.001206194 -7.5341607e-08 
   14600            0 -0.001206194            0 -0.001206194 -7.5341607e-08 
   14800            0 -0.001206194            0 -0.001206194 -7.5341607e-08 
   15000            0 -0.001206194            0 -0.001206194 -7.5341607e-08 
Loop time of 0.00409889 on 1 procs for 1000 steps with 2 atoms

Performance: 21078866.077 tau/day, 243968.357 timesteps/s
381.2% CPU use with 1 MPI tasks x 1 OpenMP threads

MPI task timing breakdown:
Section |  min time  |  avg time  |  max time  |%varavg| %total
---------------------------------------------------------------
Pair    | 0.00053334 | 0.00053334 | 0.00053334 |   0.0 | 13.01
Bond    | 0.00030828 | 0.00030828 | 0.00030828 |   0.0 |  7.52
Neigh   | 0          | 0          | 0          |   0.0 |  0.00
Comm    | 0.00054622 | 0.00054622 | 0.00054622 |   0.0 | 13.33
Output  | 0.0013068  | 0.0013068  | 0.0013068  |   0.0 | 31.88
Modify  | 0.0005393  | 0.0005393  | 0.0005393  |   0.0 | 13.16
Other   |            | 0.000865   |            |       | 21.10

Nlocal:    2 ave 2 max 2 min
Histogram: 1 0 0 0 0 0 0 0 0 0
Nghost:    0 ave 0 max 0 min
Histogram: 1 0 0 0 0 0 0 0 0 0
Neighs:    1 ave 1 max 1 min
Histogram: 1 0 0 0 0 0 0 0 0 0

Total # of neighbors = 1
Ave neighs/atom = 0.5
Ave special neighs/atom = 0
Neighbor list builds = 0
Dangerous builds = 0
Displacing atoms ...
Neighbor list info ...
  update every 1 steps, delay 10 steps, check yes
  max neighbors/atom: 2000, page size: 100000
  master list distance cutoff = 2.8
  ghost atom cutoff = 2.8
  binsize = 1.4, bins = 29 29 29
  6 neighbor lists, perpetual/occasional/extra = 5 1 0
  (1) pair lj/expand/twopiece, perpetual, skip from (6)
      attributes: half, newton on
      pair build: skip
      stencil: none
      bin: none
  (2) pair soft/shift, perpetual, skip from (6)
      attributes: half, newton on
      pair build: skip
      stencil: none
      bin: none
  (3) pair zero, perpetual, skip from (6)
      attributes: half, newton on
      pair build: skip
      stencil: none
      bin: none
  (4) pair morse, perpetual, skip from (6)
      attributes: half, newton on
      pair build: skip
      stencil: none
      bin: none
  (5) compute pair/local, occasional, copy from (6)
      attributes: half, newton on
      pair build: copy
      stencil: none
      bin: none
  (6) neighbor class addition, perpetual
      attributes: half, newton on
      pair build: half/bin/newton
      stencil: half/bin/3d/newton
      bin: standard
Setting up Verlet run ...
  Unit style    : lj
  Current step  : 15000
  Time step     : 0.001
Per MPI rank memory allocation (min/avg/max) = 9.201 | 9.201 | 9.201 Mbytes
Step Temp E_pair E_mol TotEng Press 
   15000            0 -0.0012938242            0 -0.0012938242 -8.0811633e-08 
   15200            0 -0.0012938242            0 -0.0012938242 -8.0811633e-08 
   15400            0 -0.0012938242            0 -0.0012938242 -8.0811633e-08 
   15600            0 -0.0012938242            0 -0.0012938242 -8.0811633e-08 
   15800            0 -0.0012938242            0 -0.0012938242 -8.0811633e-08 
   16000            0 -0.0012938242            0 -0.0012938242 -8.0811633e-08 
Loop time of 0.00393081 on 1 procs for 1000 steps with 2 atoms

Performance: 21980218.694 tau/day, 254400.679 timesteps/s
0.0% CPU use with 1 MPI tasks x 1 OpenMP threads

MPI task timing breakdown:
Section |  min time  |  avg time  |  max time  |%varavg| %total
---------------------------------------------------------------
Pair    | 0.00049973 | 0.00049973 | 0.00049973 |   0.0 | 12.71
Bond    | 0.00029755 | 0.00029755 | 0.00029755 |   0.0 |  7.57
Neigh   | 0          | 0          | 0          |   0.0 |  0.00
Comm    | 0.00052524 | 0.00052524 | 0.00052524 |   0.0 | 13.36
Output  | 0.0012472  | 0.0012472  | 0.0012472  |   0.0 | 31.73
Modify  | 0.00053453 | 0.00053453 | 0.00053453 |   0.0 | 13.60
Other   |            | 0.0008266  |            |       | 21.03

Nlocal:    2 ave 2 max 2 min
Histogram: 1 0 0 0 0 0 0 0 0 0
Nghost:    0 ave 0 max 0 min
Histogram: 1 0 0 0 0 0 0 0 0 0
Neighs:    1 ave 1 max 1 min
Histogram: 1 0 0 0 0 0 0 0 0 0

Total # of neighbors = 1
Ave neighs/atom = 0.5
Ave special neighs/atom = 0
Neighbor list builds = 0
Dangerous builds = 0
Displacing atoms ...
Neighbor list info ...
  update every 1 steps, delay 10 steps, check yes
  max neighbors/atom: 2000, page size: 100000
  master list distance cutoff = 2.8
  ghost atom cutoff = 2.8
  binsize = 1.4, bins = 29 29 29
  6 neighbor lists, perpetual/occasional/extra = 5 1 0
  (1) pair lj/expand/twopiece, perpetual, skip from (6)
      attributes: half, newton on
      pair build: skip
      stencil: none
      bin: none
  (2) pair soft/shift, perpetual, skip from (6)
      attributes: half, newton on
      pair build: skip
      stencil: none
      bin: none
  (3) pair zero, perpetual, skip from (6)
      attributes: half, newton on
      pair build: skip
      stencil: none
      bin: none
  (4) pair morse, perpetual, skip from (6)
      attributes: half, newton on
      pair build: skip
      stencil: none
      bin: none
  (5) compute pair/local, occasional, copy from (6)
      attributes: half, newton on
      pair build: copy
      stencil: none
      bin: none
  (6) neighbor class addition, perpetual
      attributes: half, newton on
      pair build: half/bin/newton
      stencil: half/bin/3d/newton
      bin: standard
Setting up Verlet run ...
  Unit style    : lj
  Current step  : 16000
  Time step     : 0.001
Per MPI rank memory allocation (min/avg/max) = 9.201 | 9.201 | 9.201 Mbytes
Step Temp E_pair E_mol TotEng Press 
   16000            0 -0.0013889685            0 -0.0013889685 -8.6750161e-08 
   16200            0 -0.0013889685            0 -0.0013889685 -8.6750161e-08 
   16400            0 -0.0013889685            0 -0.0013889685 -8.6750161e-08 
   16600            0 -0.0013889685            0 -0.0013889685 -8.6750161e-08 
   16800            0 -0.0013889685            0 -0.0013889685 -8.6750161e-08 
   17000            0 -0.0013889685            0 -0.0013889685 -8.6750161e-08 
Loop time of 0.00393605 on 1 procs for 1000 steps with 2 atoms

Performance: 21950927.712 tau/day, 254061.663 timesteps/s
0.0% CPU use with 1 MPI tasks x 1 OpenMP threads

MPI task timing breakdown:
Section |  min time  |  avg time  |  max time  |%varavg| %total
---------------------------------------------------------------
Pair    | 0.00050163 | 0.00050163 | 0.00050163 |   0.0 | 12.74
Bond    | 0.00030541 | 0.00030541 | 0.00030541 |   0.0 |  7.76
Neigh   | 0          | 0          | 0          |   0.0 |  0.00
Comm    | 0.00051951 | 0.00051951 | 0.00051951 |   0.0 | 13.20
Output  | 0.0012054  | 0.0012054  | 0.0012054  |   0.0 | 30.63
Modify  | 0.00055051 | 0.00055051 | 0.00055051 |   0.0 | 13.99
Other   |            | 0.0008535  |            |       | 21.69

Nlocal:    2 ave 2 max 2 min
Histogram: 1 0 0 0 0 0 0 0 0 0
Nghost:    0 ave 0 max 0 min
Histogram: 1 0 0 0 0 0 0 0 0 0
Neighs:    1 ave 1 max 1 min
Histogram: 1 0 0 0 0 0 0 0 0 0

Total # of neighbors = 1
Ave neighs/atom = 0.5
Ave special neighs/atom = 0
Neighbor list builds = 0
Dangerous builds = 0
Displacing atoms ...
Neighbor list info ...
  update every 1 steps, delay 10 steps, check yes
  max neighbors/atom: 2000, page size: 100000
  master list distance cutoff = 2.8
  ghost atom cutoff = 2.8
  binsize = 1.4, bins = 29 29 29
  6 neighbor lists, perpetual/occasional/extra = 5 1 0
  (1) pair lj/expand/twopiece, perpetual, skip from (6)
      attributes: half, newton on
      pair build: skip
      stencil: none
      bin: none
  (2) pair soft/shift, perpetual, skip from (6)
      attributes: half, newton on
      pair build: skip
      stencil: none
      bin: none
  (3) pair zero, perpetual, skip from (6)
      attributes: half, newton on
      pair build: skip
      stencil: none
      bin: none
  (4) pair morse, perpetual, skip from (6)
      attributes: half, newton on
      pair build: skip
      stencil: none
      bin: none
  (5) compute pair/local, occasional, copy from (6)
      attributes: half, newton on
      pair build: copy
      stencil: none
      bin: none
  (6) neighbor class addition, perpetual
      attributes: half, newton on
      pair build: half/bin/newton
      stencil: half/bin/3d/newton
      bin: standard
Setting up Verlet run ...
  Unit style    : lj
  Current step  : 17000
  Time step     : 0.001
Per MPI rank memory allocation (min/avg/max) = 9.201 | 9.201 | 9.201 Mbytes
Step Temp E_pair E_mol TotEng Press 
   17000            0 -0.0014923719            0 -0.0014923719 -9.3203541e-08 
   17200            0 -0.0014923719            0 -0.0014923719 -9.3203541e-08 
   17400            0 -0.0014923719            0 -0.0014923719 -9.3203541e-08 
   17600            0 -0.0014923719            0 -0.0014923719 -9.3203541e-08 
   17800            0 -0.0014923719            0 -0.0014923719 -9.3203541e-08 
   18000            0 -0.0014923719            0 -0.0014923719 -9.3203541e-08 
Loop time of 0.00380516 on 1 procs for 1000 steps with 2 atoms

Performance: 22706006.617 tau/day, 262801.003 timesteps/s
0.0% CPU use with 1 MPI tasks x 1 OpenMP threads

MPI task timing breakdown:
Section |  min time  |  avg time  |  max time  |%varavg| %total
---------------------------------------------------------------
Pair    | 0.00048852 | 0.00048852 | 0.00048852 |   0.0 | 12.84
Bond    | 0.00030017 | 0.00030017 | 0.00030017 |   0.0 |  7.89
Neigh   | 0          | 0          | 0          |   0.0 |  0.00
Comm    | 0.00051308 | 0.00051308 | 0.00051308 |   0.0 | 13.48
Output  | 0.0011635  | 0.0011635  | 0.0011635  |   0.0 | 30.58
Modify  | 0.00051761 | 0.00051761 | 0.00051761 |   0.0 | 13.60
Other   |            | 0.0008223  |            |       | 21.61

Nlocal:    2 ave 2 max 2 min
Histogram: 1 0 0 0 0 0 0 0 0 0
Nghost:    0 ave 0 max 0 min
Histogram: 1 0 0 0 0 0 0 0 0 0
Neighs:    1 ave 1 max 1 min
Histogram: 1 0 0 0 0 0 0 0 0 0

Total # of neighbors = 1
Ave neighs/atom = 0.5
Ave special neighs/atom = 0
Neighbor list builds = 0
Dangerous builds = 0
Displacing atoms ...
Neighbor list info ...
  update every 1 steps, delay 10 steps, check yes
  max neighbors/atom: 2000, page size: 100000
  master list distance cutoff = 2.8
  ghost atom cutoff = 2.8
  binsize = 1.4, bins = 29 29 29
  6 neighbor lists, perpetual/occasional/extra = 5 1 0
  (1) pair lj/expand/twopiece, perpetual, skip from (6)
      attributes: half, newton on
      pair build: skip
      stencil: none
      bin: none
  (2) pair soft/shift, perpetual, skip from (6)
      attributes: half, newton on
      pair build: skip
      stencil: none
      bin: none
  (3) pair zero, perpetual, skip from (6)
      attributes: half, newton on
      pair build: skip
      stencil: none
      bin: none
  (4) pair morse, perpetual, skip from (6)
      attributes: half, newton on
      pair build: skip
      stencil: none
      bin: none
  (5) compute pair/local, occasional, copy from (6)
      attributes: half, newton on
      pair build: copy
      stencil: none
      bin: none
  (6) neighbor class addition, perpetual
      attributes: half, newton on
      pair build: half/bin/newton
      stencil: half/bin/3d/newton
      bin: standard
Setting up Verlet run ...
  Unit style    : lj
  Current step  : 18000
  Time step     : 0.001
Per MPI rank memory allocation (min/avg/max) = 9.201 | 9.201 | 9.201 Mbytes
Step Temp E_pair E_mol TotEng Press 
   18000            0 -0.0016048632            0 -0.0016048632 -1.0022333e-07 
   18200            0 -0.0016048632            0 -0.0016048632 -1.0022333e-07 
   18400            0 -0.0016048632            0 -0.0016048632 -1.0022333e-07 
   18600            0 -0.0016048632            0 -0.0016048632 -1.0022333e-07 
   18800            0 -0.0016048632            0 -0.0016048632 -1.0022333e-07 
   19000            0 -0.0016048632            0 -0.0016048632 -1.0022333e-07 
Loop time of 0.00381088 on 1 procs for 1000 steps with 2 atoms

Performance: 22671913.514 tau/day, 262406.406 timesteps/s
410.0% CPU use with 1 MPI tasks x 1 OpenMP threads

MPI task timing breakdown:
Section |  min time  |  avg time  |  max time  |%varavg| %total
---------------------------------------------------------------
Pair    | 0.00048423 | 0.00048423 | 0.00048423 |   0.0 | 12.71
Bond    | 0.0002892  | 0.0002892  | 0.0002892  |   0.0 |  7.59
Neigh   | 0          | 0          | 0          |   0.0 |  0.00
Comm    | 0.00052118 | 0.00052118 | 0.00052118 |   0.0 | 13.68
Output  | 0.0011489  | 0.0011489  | 0.0011489  |   0.0 | 30.15
Modify  | 0.00051975 | 0.00051975 | 0.00051975 |   0.0 | 13.64
Other   |            | 0.0008476  |            |       | 22.24

Nlocal:    2 ave 2 max 2 min
Histogram: 1 0 0 0 0 0 0 0 0 0
Nghost:    0 ave 0 max 0 min
Histogram: 1 0 0 0 0 0 0 0 0 0
Neighs:    1 ave 1 max 1 min
Histogram: 1 0 0 0 0 0 0 0 0 0

Total # of neighbors = 1
Ave neighs/atom = 0.5
Ave special neighs/atom = 0
Neighbor list builds = 0
Dangerous builds = 0
Displacing atoms ...
Neighbor list info ...
  update every 1 steps, delay 10 steps, check yes
  max neighbors/atom: 2000, page size: 100000
  master list distance cutoff = 2.8
  ghost atom cutoff = 2.8
  binsize = 1.4, bins = 29 29 29
  6 neighbor lists, perpetual/occasional/extra = 5 1 0
  (1) pair lj/expand/twopiece, perpetual, skip from (6)
      attributes: half, newton on
      pair build: skip
      stencil: none
      bin: none
  (2) pair soft/shift, perpetual, skip from (6)
      attributes: half, newton on
      pair build: skip
      stencil: none
      bin: none
  (3) pair zero, perpetual, skip from (6)
      attributes: half, newton on
      pair build: skip
      stencil: none
      bin: none
  (4) pair morse, perpetual, skip from (6)
      attributes: half, newton on
      pair build: skip
      stencil: none
      bin: none
  (5) compute pair/local, occasional, copy from (6)
      attributes: half, newton on
      pair build: copy
      stencil: none
      bin: none
  (6) neighbor class addition, perpetual
      attributes: half, newton on
      pair build: half/bin/newton
      stencil: half/bin/3d/newton
      bin: standard
Setting up Verlet run ...
  Unit style    : lj
  Current step  : 19000
  Time step     : 0.001
Per MPI rank memory allocation (min/avg/max) = 9.201 | 9.201 | 9.201 Mbytes
Step Temp E_pair E_mol TotEng Press 
   19000            0 -0.001727366            0 -0.001727366 -1.0786697e-07 
   19200            0 -0.001727366            0 -0.001727366 -1.0786697e-07 
   19400            0 -0.001727366            0 -0.001727366 -1.0786697e-07 
   19600            0 -0.001727366            0 -0.001727366 -1.0786697e-07 
   19800            0 -0.001727366            0 -0.001727366 -1.0786697e-07 
   20000            0 -0.001727366            0 -0.001727366 -1.0786697e-07 
Loop time of 0.00395322 on 1 procs for 1000 steps with 2 atoms

Performance: 21855609.770 tau/day, 252958.446 timesteps/s
0.0% CPU use with 1 MPI tasks x 1 OpenMP threads

MPI task timing breakdown:
Section |  min time  |  avg time  |  max time  |%varavg| %total
---------------------------------------------------------------
Pair    | 0.00049067 | 0.00049067 | 0.00049067 |   0.0 | 12.41
Bond    | 0.00029778 | 0.00029778 | 0.00029778 |   0.0 |  7.53
Neigh   | 0          | 0          | 0          |   0.0 |  0.00
Comm    | 0.00054693 | 0.00054693 | 0.00054693 |   0.0 | 13.84
Output  | 0.0012484  | 0.0012484  | 0.0012484  |   0.0 | 31.58
Modify  | 0.00053167 | 0.00053167 | 0.00053167 |   0.0 | 13.45
Other   |            | 0.0008378  |            |       | 21.19

Nlocal:    2 ave 2 max 2 min
Histogram: 1 0 0 0 0 0 0 0 0 0
Nghost:    0 ave 0 max 0 min
Histogram: 1 0 0 0 0 0 0 0 0 0
Neighs:    1 ave 1 max 1 min
Histogram: 1 0 0 0 0 0 0 0 0 0

Total # of neighbors = 1
Ave neighs/atom = 0.5
Ave special neighs/atom = 0
Neighbor list builds = 0
Dangerous builds = 0
Displacing atoms ...
Neighbor list info ...
  update every 1 steps, delay 10 steps, check yes
  max neighbors/atom: 2000, page size: 100000
  master list distance cutoff = 2.8
  ghost atom cutoff = 2.8
  binsize = 1.4, bins = 29 29 29
  6 neighbor lists, perpetual/occasional/extra = 5 1 0
  (1) pair lj/expand/twopiece, perpetual, skip from (6)
      attributes: half, newton on
      pair build: skip
      stencil: none
      bin: none
  (2) pair soft/shift, perpetual, skip from (6)
      attributes: half, newton on
      pair build: skip
      stencil: none
      bin: none
  (3) pair zero, perpetual, skip from (6)
      attributes: half, newton on
      pair build: skip
      stencil: none
      bin: none
  (4) pair morse, perpetual, skip from (6)
      attributes: half, newton on
      pair build: skip
      stencil: none
      bin: none
  (5) compute pair/local, occasional, copy from (6)
      attributes: half, newton on
      pair build: copy
      stencil: none
      bin: none
  (6) neighbor class addition, perpetual
      attributes: half, newton on
      pair build: half/bin/newton
      stencil: half/bin/3d/newton
      bin: standard
Setting up Verlet run ...
  Unit style    : lj
  Current step  : 20000
  Time step     : 0.001
Per MPI rank memory allocation (min/avg/max) = 9.201 | 9.201 | 9.201 Mbytes
Step Temp E_pair E_mol TotEng Press 
   20000            0 -0.0018609104            0 -0.0018609104 -1.1619848e-07 
   20200            0 -0.0018609104            0 -0.0018609104 -1.1619848e-07 
   20400            0 -0.0018609104            0 -0.0018609104 -1.1619848e-07 
   20600            0 -0.0018609104            0 -0.0018609104 -1.1619848e-07 
   20800            0 -0.0018609104            0 -0.0018609104 -1.1619848e-07 
   21000            0 -0.0018609104            0 -0.0018609104 -1.1619848e-07 
Loop time of 0.00375485 on 1 procs for 1000 steps with 2 atoms

Performance: 23010214.337 tau/day, 266321.925 timesteps/s
0.0% CPU use with 1 MPI tasks x 1 OpenMP threads

MPI task timing breakdown:
Section |  min time  |  avg time  |  max time  |%varavg| %total
---------------------------------------------------------------
Pair    | 0.00048018 | 0.00048018 | 0.00048018 |   0.0 | 12.79
Bond    | 0.00028896 | 0.00028896 | 0.00028896 |   0.0 |  7.70
Neigh   | 0          | 0          | 0          |   0.0 |  0.00
Comm    | 0.00053191 | 0.00053191 | 0.00053191 |   0.0 | 14.17
Output  | 0.0011175  | 0.0011175  | 0.0011175  |   0.0 | 29.76
Modify  | 0.00051236 | 0.00051236 | 0.00051236 |   0.0 | 13.65
Other   |            | 0.000824   |            |       | 21.94

Nlocal:    2 ave 2 max 2 min
Histogram: 1 0 0 0 0 0 0 0 0 0
Nghost:    0 ave 0 max 0 min
Histogram: 1 0 0 0 0 0 0 0 0 0
Neighs:    1 ave 1 max 1 min
Histogram: 1 0 0 0 0 0 0 0 0 0

Total # of neighbors = 1
Ave neighs/atom = 0.5
Ave special neighs/atom = 0
Neighbor list builds = 0
Dangerous builds = 0
Displacing atoms ...
Neighbor list info ...
  update every 1 steps, delay 10 steps, check yes
  max neighbors/atom: 2000, page size: 100000
  master list distance cutoff = 2.8
  ghost atom cutoff = 2.8
  binsize = 1.4, bins = 29 29 29
  6 neighbor lists, perpetual/occasional/extra = 5 1 0
  (1) pair lj/expand/twopiece, perpetual, skip from (6)
      attributes: half, newton on
      pair build: skip
      stencil: none
      bin: none
  (2) pair soft/shift, perpetual, skip from (6)
      attributes: half, newton on
      pair build: skip
      stencil: none
      bin: none
  (3) pair zero, perpetual, skip from (6)
      attributes: half, newton on
      pair build: skip
      stencil: none
      bin: none
  (4) pair morse, perpetual, skip from (6)
      attributes: half, newton on
      pair build: skip
      stencil: none
      bin: none
  (5) compute pair/local, occasional, copy from (6)
      attributes: half, newton on
      pair build: copy
      stencil: none
      bin: none
  (6) neighbor class addition, perpetual
      attributes: half, newton on
      pair build: half/bin/newton
      stencil: half/bin/3d/newton
      bin: standard
Setting up Verlet run ...
  Unit style    : lj
  Current step  : 21000
  Time step     : 0.001
Per MPI rank memory allocation (min/avg/max) = 9.201 | 9.201 | 9.201 Mbytes
Step Temp E_pair E_mol TotEng Press 
   21000            0 -0.0020066476            0 -0.0020066476 -1.2528939e-07 
   21200            0 -0.0020066476            0 -0.0020066476 -1.2528939e-07 
   21400            0 -0.0020066476            0 -0.0020066476 -1.2528939e-07 
   21600            0 -0.0020066476            0 -0.0020066476 -1.2528939e-07 
   21800            0 -0.0020066476            0 -0.0020066476 -1.2528939e-07 
   22000            0 -0.0020066476            0 -0.0020066476 -1.2528939e-07 
Loop time of 0.0048511 on 1 procs for 1000 steps with 2 atoms

Performance: 17810383.133 tau/day, 206138.694 timesteps/s
0.0% CPU use with 1 MPI tasks x 1 OpenMP threads

MPI task timing breakdown:
Section |  min time  |  avg time  |  max time  |%varavg| %total
---------------------------------------------------------------
Pair    | 0.0005393  | 0.0005393  | 0.0005393  |   0.0 | 11.12
Bond    | 0.00036383 | 0.00036383 | 0.00036383 |   0.0 |  7.50
Neigh   | 0          | 0          | 0          |   0.0 |  0.00
Comm    | 0.00057316 | 0.00057316 | 0.00057316 |   0.0 | 11.82
Output  | 0.0017622  | 0.0017622  | 0.0017622  |   0.0 | 36.32
Modify  | 0.00061965 | 0.00061965 | 0.00061965 |   0.0 | 12.77
Other   |            | 0.000993   |            |       | 20.47

Nlocal:    2 ave 2 max 2 min
Histogram: 1 0 0 0 0 0 0 0 0 0
Nghost:    0 ave 0 max 0 min
Histogram: 1 0 0 0 0 0 0 0 0 0
Neighs:    1 ave 1 max 1 min
Histogram: 1 0 0 0 0 0 0 0 0 0

Total # of neighbors = 1
Ave neighs/atom = 0.5
Ave special neighs/atom = 0
Neighbor list builds = 0
Dangerous builds = 0
Displacing atoms ...
Neighbor list info ...
  update every 1 steps, delay 10 steps, check yes
  max neighbors/atom: 2000, page size: 100000
  master list distance cutoff = 2.8
  ghost atom cutoff = 2.8
  binsize = 1.4, bins = 29 29 29
  6 neighbor lists, perpetual/occasional/extra = 5 1 0
  (1) pair lj/expand/twopiece, perpetual, skip from (6)
      attributes: half, newton on
      pair build: skip
      stencil: none
      bin: none
  (2) pair soft/shift, perpetual, skip from (6)
      attributes: half, newton on
      pair build: skip
      stencil: none
      bin: none
  (3) pair zero, perpetual, skip from (6)
      attributes: half, newton on
      pair build: skip
      stencil: none
      bin: none
  (4) pair morse, perpetual, skip from (6)
      attributes: half, newton on
      pair build: skip
      stencil: none
      bin: none
  (5) compute pair/local, occasional, copy from (6)
      attributes: half, newton on
      pair build: copy
      stencil: none
      bin: none
  (6) neighbor class addition, perpetual
      attributes: half, newton on
      pair build: half/bin/newton
      stencil: half/bin/3d/newton
      bin: standard
Setting up Verlet run ...
  Unit style    : lj
  Current step  : 22000
  Time step     : 0.001
Per MPI rank memory allocation (min/avg/max) = 9.201 | 9.201 | 9.201 Mbytes
Step Temp E_pair E_mol TotEng Press 
   22000            0 -0.0021658649            0 -0.0021658649 -1.3521964e-07 
   22200            0 -0.0021658649            0 -0.0021658649 -1.3521964e-07 
   22400            0 -0.0021658649            0 -0.0021658649 -1.3521964e-07 
   22600            0 -0.0021658649            0 -0.0021658649 -1.3521964e-07 
   22800            0 -0.0021658649            0 -0.0021658649 -1.3521964e-07 
   23000            0 -0.0021658649            0 -0.0021658649 -1.3521964e-07 
Loop time of 0.00497794 on 1 procs for 1000 steps with 2 atoms

Performance: 17356571.943 tau/day, 200886.249 timesteps/s
0.0% CPU use with 1 MPI tasks x 1 OpenMP threads

MPI task timing breakdown:
Section |  min time  |  avg time  |  max time  |%varavg| %total
---------------------------------------------------------------
Pair    | 0.00052118 | 0.00052118 | 0.00052118 |   0.0 | 10.47
Bond    | 0.00031543 | 0.00031543 | 0.00031543 |   0.0 |  6.34
Neigh   | 0          | 0          | 0          |   0.0 |  0.00
Comm    | 0.0012636  | 0.0012636  | 0.0012636  |   0.0 | 25.38
Output  | 0.0015006  | 0.0015006  | 0.0015006  |   0.0 | 30.15
Modify  | 0.00052428 | 0.00052428 | 0.00052428 |   0.0 | 10.53
Other   |            | 0.0008528  |            |       | 17.13

Nlocal:    2 ave 2 max 2 min
Histogram: 1 0 0 0 0 0 0 0 0 0
Nghost:    0 ave 0 max 0 min
Histogram: 1 0 0 0 0 0 0 0 0 0
Neighs:    1 ave 1 max 1 min
Histogram: 1 0 0 0 0 0 0 0 0 0

Total # of neighbors = 1
Ave neighs/atom = 0.5
Ave special neighs/atom = 0
Neighbor list builds = 0
Dangerous builds = 0
Displacing atoms ...
Neighbor list info ...
  update every 1 steps, delay 10 steps, check yes
  max neighbors/atom: 2000, page size: 100000
  master list distance cutoff = 2.8
  ghost atom cutoff = 2.8
  binsize = 1.4, bins = 29 29 29
  6 neighbor lists, perpetual/occasional/extra = 5 1 0
  (1) pair lj/expand/twopiece, perpetual, skip from (6)
      attributes: half, newton on
      pair build: skip
      stencil: none
      bin: none
  (2) pair soft/shift, perpetual, skip from (6)
      attributes: half, newton on
      pair build: skip
      stencil: none
      bin: none
  (3) pair zero, perpetual, skip from (6)
      attributes: half, newton on
      pair build: skip
      stencil: none
      bin: none
  (4) pair morse, perpetual, skip from (6)
      attributes: half, newton on
      pair build: skip
      stencil: none
      bin: none
  (5) compute pair/local, occasional, copy from (6)
      attributes: half, newton on
      pair build: copy
      stencil: none
      bin: none
  (6) neighbor class addition, perpetual
      attributes: half, newton on
      pair build: half/bin/newton
      stencil: half/bin/3d/newton
      bin: standard
Setting up Verlet run ...
  Unit style    : lj
  Current step  : 23000
  Time step     : 0.001
Per MPI rank memory allocation (min/avg/max) = 9.201 | 9.201 | 9.201 Mbytes
Step Temp E_pair E_mol TotEng Press 
   23000            0 -0.0023400044            0 -0.0023400044 -1.4607876e-07 
   23200            0 -0.0023400044            0 -0.0023400044 -1.4607876e-07 
   23400            0 -0.0023400044            0 -0.0023400044 -1.4607876e-07 
   23600            0 -0.0023400044            0 -0.0023400044 -1.4607876e-07 
   23800            0 -0.0023400044            0 -0.0023400044 -1.4607876e-07 
   24000            0 -0.0023400044            0 -0.0023400044 -1.4607876e-07 
Loop time of 0.00384402 on 1 procs for 1000 steps with 2 atoms

Performance: 22476453.861 tau/day, 260144.142 timesteps/s
0.0% CPU use with 1 MPI tasks x 1 OpenMP threads

MPI task timing breakdown:
Section |  min time  |  avg time  |  max time  |%varavg| %total
---------------------------------------------------------------
Pair    | 0.00048804 | 0.00048804 | 0.00048804 |   0.0 | 12.70
Bond    | 0.00028944 | 0.00028944 | 0.00028944 |   0.0 |  7.53
Neigh   | 0          | 0          | 0          |   0.0 |  0.00
Comm    | 0.00050449 | 0.00050449 | 0.00050449 |   0.0 | 13.12
Output  | 0.001169   | 0.001169   | 0.001169   |   0.0 | 30.41
Modify  | 0.00053501 | 0.00053501 | 0.00053501 |   0.0 | 13.92
Other   |            | 0.0008581  |            |       | 22.32

Nlocal:    2 ave 2 max 2 min
Histogram: 1 0 0 0 0 0 0 0 0 0
Nghost:    0 ave 0 max 0 min
Histogram: 1 0 0 0 0 0 0 0 0 0
Neighs:    1 ave 1 max 1 min
Histogram: 1 0 0 0 0 0 0 0 0 0

Total # of neighbors = 1
Ave neighs/atom = 0.5
Ave special neighs/atom = 0
Neighbor list builds = 0
Dangerous builds = 0
Displacing atoms ...
Neighbor list info ...
  update every 1 steps, delay 10 steps, check yes
  max neighbors/atom: 2000, page size: 100000
  master list distance cutoff = 2.8
  ghost atom cutoff = 2.8
  binsize = 1.4, bins = 29 29 29
  6 neighbor lists, perpetual/occasional/extra = 5 1 0
  (1) pair lj/expand/twopiece, perpetual, skip from (6)
      attributes: half, newton on
      pair build: skip
      stencil: none
      bin: none
  (2) pair soft/shift, perpetual, skip from (6)
      attributes: half, newton on
      pair build: skip
      stencil: none
      bin: none
  (3) pair zero, perpetual, skip from (6)
      attributes: half, newton on
      pair build: skip
      stencil: none
      bin: none
  (4) pair morse, perpetual, skip from (6)
      attributes: half, newton on
      pair build: skip
      stencil: none
      bin: none
  (5) compute pair/local, occasional, copy from (6)
      attributes: half, newton on
      pair build: copy
      stencil: none
      bin: none
  (6) neighbor class addition, perpetual
      attributes: half, newton on
      pair build: half/bin/newton
      stencil: half/bin/3d/newton
      bin: standard
Setting up Verlet run ...
  Unit style    : lj
  Current step  : 24000
  Time step     : 0.001
Per MPI rank memory allocation (min/avg/max) = 9.201 | 9.201 | 9.201 Mbytes
Step Temp E_pair E_mol TotEng Press 
   24000            0 -0.002530684            0 -0.002530684 -1.579671e-07 
   24200            0 -0.002530684            0 -0.002530684 -1.579671e-07 
   24400            0 -0.002530684            0 -0.002530684 -1.579671e-07 
   24600            0 -0.002530684            0 -0.002530684 -1.579671e-07 
   24800            0 -0.002530684            0 -0.002530684 -1.579671e-07 
   25000            0 -0.002530684            0 -0.002530684 -1.579671e-07 
Loop time of 0.0065968 on 1 procs for 1000 steps with 2 atoms

Performance: 13097252.000 tau/day, 151588.565 timesteps/s
0.0% CPU use with 1 MPI tasks x 1 OpenMP threads

MPI task timing breakdown:
Section |  min time  |  avg time  |  max time  |%varavg| %total
---------------------------------------------------------------
Pair    | 0.00063634 | 0.00063634 | 0.00063634 |   0.0 |  9.65
Bond    | 0.00037265 | 0.00037265 | 0.00037265 |   0.0 |  5.65
Neigh   | 0          | 0          | 0          |   0.0 |  0.00
Comm    | 0.00098896 | 0.00098896 | 0.00098896 |   0.0 | 14.99
Output  | 0.0029428  | 0.0029428  | 0.0029428  |   0.0 | 44.61
Modify  | 0.00062251 | 0.00062251 | 0.00062251 |   0.0 |  9.44
Other   |            | 0.001034   |            |       | 15.67

Nlocal:    2 ave 2 max 2 min
Histogram: 1 0 0 0 0 0 0 0 0 0
Nghost:    0 ave 0 max 0 min
Histogram: 1 0 0 0 0 0 0 0 0 0
Neighs:    1 ave 1 max 1 min
Histogram: 1 0 0 0 0 0 0 0 0 0

Total # of neighbors = 1
Ave neighs/atom = 0.5
Ave special neighs/atom = 0
Neighbor list builds = 0
Dangerous builds = 0
Displacing atoms ...
Neighbor list info ...
  update every 1 steps, delay 10 steps, check yes
  max neighbors/atom: 2000, page size: 100000
  master list distance cutoff = 2.8
  ghost atom cutoff = 2.8
  binsize = 1.4, bins = 29 29 29
  6 neighbor lists, perpetual/occasional/extra = 5 1 0
  (1) pair lj/expand/twopiece, perpetual, skip from (6)
      attributes: half, newton on
      pair build: skip
      stencil: none
      bin: none
  (2) pair soft/shift, perpetual, skip from (6)
      attributes: half, newton on
      pair build: skip
      stencil: none
      bin: none
  (3) pair zero, perpetual, skip from (6)
      attributes: half, newton on
      pair build: skip
      stencil: none
      bin: none
  (4) pair morse, perpetual, skip from (6)
      attributes: half, newton on
      pair build: skip
      stencil: none
      bin: none
  (5) compute pair/local, occasional, copy from (6)
      attributes: half, newton on
      pair build: copy
      stencil: none
      bin: none
  (6) neighbor class addition, perpetual
      attributes: half, newton on
      pair build: half/bin/newton
      stencil: half/bin/3d/newton
      bin: standard
Setting up Verlet run ...
  Unit style    : lj
  Current step  : 25000
  Time step     : 0.001
Per MPI rank memory allocation (min/avg/max) = 9.201 | 9.201 | 9.201 Mbytes
Step Temp E_pair E_mol TotEng Press 
   25000            0 -0.0027397209            0 -0.0027397209 -1.7099734e-07 
   25200            0 -0.0027397209            0 -0.0027397209 -1.7099734e-07 
   25400            0 -0.0027397209            0 -0.0027397209 -1.7099734e-07 
   25600            0 -0.0027397209            0 -0.0027397209 -1.7099734e-07 
   25800            0 -0.0027397209            0 -0.0027397209 -1.7099734e-07 
   26000            0 -0.0027397209            0 -0.0027397209 -1.7099734e-07 
Loop time of 0.00483584 on 1 procs for 1000 steps with 2 atoms

Performance: 17866581.157 tau/day, 206789.134 timesteps/s
0.0% CPU use with 1 MPI tasks x 1 OpenMP threads

MPI task timing breakdown:
Section |  min time  |  avg time  |  max time  |%varavg| %total
---------------------------------------------------------------
Pair    | 0.00063348 | 0.00063348 | 0.00063348 |   0.0 | 13.10
Bond    | 0.00036407 | 0.00036407 | 0.00036407 |   0.0 |  7.53
Neigh   | 0          | 0          | 0          |   0.0 |  0.00
Comm    | 0.00063753 | 0.00063753 | 0.00063753 |   0.0 | 13.18
Output  | 0.0015471  | 0.0015471  | 0.0015471  |   0.0 | 31.99
Modify  | 0.00064659 | 0.00064659 | 0.00064659 |   0.0 | 13.37
Other   |            | 0.001007   |            |       | 20.83

Nlocal:    2 ave 2 max 2 min
Histogram: 1 0 0 0 0 0 0 0 0 0
Nghost:    0 ave 0 max 0 min
Histogram: 1 0 0 0 0 0 0 0 0 0
Neighs:    1 ave 1 max 1 min
Histogram: 1 0 0 0 0 0 0 0 0 0

Total # of neighbors = 1
Ave neighs/atom = 0.5
Ave special neighs/atom = 0
Neighbor list builds = 0
Dangerous builds = 0
Displacing atoms ...
Neighbor list info ...
  update every 1 steps, delay 10 steps, check yes
  max neighbors/atom: 2000, page size: 100000
  master list distance cutoff = 2.8
  ghost atom cutoff = 2.8
  binsize = 1.4, bins = 29 29 29
  6 neighbor lists, perpetual/occasional/extra = 5 1 0
  (1) pair lj/expand/twopiece, perpetual, skip from (6)
      attributes: half, newton on
      pair build: skip
      stencil: none
      bin: none
  (2) pair soft/shift, perpetual, skip from (6)
      attributes: half, newton on
      pair build: skip
      stencil: none
      bin: none
  (3) pair zero, perpetual, skip from (6)
      attributes: half, newton on
      pair build: skip
      stencil: none
      bin: none
  (4) pair morse, perpetual, skip from (6)
      attributes: half, newton on
      pair build: skip
      stencil: none
      bin: none
  (5) compute pair/local, occasional, copy from (6)
      attributes: half, newton on
      pair build: copy
      stencil: none
      bin: none
  (6) neighbor class addition, perpetual
      attributes: half, newton on
      pair build: half/bin/newton
      stencil: half/bin/3d/newton
      bin: standard
Setting up Verlet run ...
  Unit style    : lj
  Current step  : 26000
  Time step     : 0.001
Per MPI rank memory allocation (min/avg/max) = 9.201 | 9.201 | 9.201 Mbytes
Step Temp E_pair E_mol TotEng Press 
   26000            0 -0.0029691596            0 -0.0029691596 -1.8529616e-07 
   26200            0 -0.0029691596            0 -0.0029691596 -1.8529616e-07 
   26400            0 -0.0029691596            0 -0.0029691596 -1.8529616e-07 
   26600            0 -0.0029691596            0 -0.0029691596 -1.8529616e-07 
   26800            0 -0.0029691596            0 -0.0029691596 -1.8529616e-07 
   27000            0 -0.0029691596            0 -0.0029691596 -1.8529616e-07 
Loop time of 0.00535607 on 1 procs for 1000 steps with 2 atoms

Performance: 16131220.369 tau/day, 186703.939 timesteps/s
0.0% CPU use with 1 MPI tasks x 1 OpenMP threads

MPI task timing breakdown:
Section |  min time  |  avg time  |  max time  |%varavg| %total
---------------------------------------------------------------
Pair    | 0.00051045 | 0.00051045 | 0.00051045 |   0.0 |  9.53
Bond    | 0.0002985  | 0.0002985  | 0.0002985  |   0.0 |  5.57
Neigh   | 0          | 0          | 0          |   0.0 |  0.00
Comm    | 0.00084329 | 0.00084329 | 0.00084329 |   0.0 | 15.74
Output  | 0.001286   | 0.001286   | 0.001286   |   0.0 | 24.01
Modify  | 0.00053477 | 0.00053477 | 0.00053477 |   0.0 |  9.98
Other   |            | 0.001883   |            |       | 35.16

Nlocal:    2 ave 2 max 2 min
Histogram: 1 0 0 0 0 0 0 0 0 0
Nghost:    0 ave 0 max 0 min
Histogram: 1 0 0 0 0 0 0 0 0 0
Neighs:    1 ave 1 max 1 min
Histogram: 1 0 0 0 0 0 0 0 0 0

Total # of neighbors = 1
Ave neighs/atom = 0.5
Ave special neighs/atom = 0
Neighbor list builds = 0
Dangerous builds = 0
Displacing atoms ...
Neighbor list info ...
  update every 1 steps, delay 10 steps, check yes
  max neighbors/atom: 2000, page size: 100000
  master list distance cutoff = 2.8
  ghost atom cutoff = 2.8
  binsize = 1.4, bins = 29 29 29
  6 neighbor lists, perpetual/occasional/extra = 5 1 0
  (1) pair lj/expand/twopiece, perpetual, skip from (6)
      attributes: half, newton on
      pair build: skip
      stencil: none
      bin: none
  (2) pair soft/shift, perpetual, skip from (6)
      attributes: half, newton on
      pair build: skip
      stencil: none
      bin: none
  (3) pair zero, perpetual, skip from (6)
      attributes: half, newton on
[...]
  (1) pair lj/expand/twopiece, perpetual, skip from (6)
      attributes: half, newton on
      pair build: skip
      stencil: none
      bin: none
  (2) pair soft/shift, perpetual, skip from (6)
      attributes: half, newton on
      pair build: skip
      stencil: none
      bin: none
  (3) pair zero, perpetual, skip from (6)
      attributes: half, newton on
      pair build: skip
      stencil: none
      bin: none
  (4) pair morse, perpetual, skip from (6)
      attributes: half, newton on
      pair build: skip
      stencil: none
      bin: none
  (5) compute pair/local, occasional, copy from (6)
      attributes: half, newton on
      pair build: copy
      stencil: none
      bin: none
  (6) neighbor class addition, perpetual
      attributes: half, newton on
      pair build: half/bin/newton
      stencil: half/bin/3d/newton
      bin: standard
Setting up Verlet run ...
  Unit style    : lj
  Current step  : 74000
  Time step     : 0.001
Per MPI rank memory allocation (min/avg/max) = 9.201 | 9.201 | 9.201 Mbytes
Step Temp E_pair E_mol TotEng Press 
   74000            0  -0.33143495            0  -0.33143495 5.7359947e-05 
   74200            0  -0.33143495            0  -0.33143495 5.7359947e-05 
   74400            0  -0.33143495            0  -0.33143495 5.7359947e-05 
   74600            0  -0.33143495            0  -0.33143495 5.7359947e-05 
   74800            0  -0.33143495            0  -0.33143495 5.7359947e-05 
   75000            0  -0.33143495            0  -0.33143495 5.7359947e-05 
Loop time of 0.00404 on 1 procs for 1000 steps with 2 atoms

Performance: 21386123.671 tau/day, 247524.580 timesteps/s
0.0% CPU use with 1 MPI tasks x 1 OpenMP threads

MPI task timing breakdown:
Section |  min time  |  avg time  |  max time  |%varavg| %total
---------------------------------------------------------------
Pair    | 0.00050879 | 0.00050879 | 0.00050879 |   0.0 | 12.59
Bond    | 0.00029087 | 0.00029087 | 0.00029087 |   0.0 |  7.20
Neigh   | 0          | 0          | 0          |   0.0 |  0.00
Comm    | 0.00054336 | 0.00054336 | 0.00054336 |   0.0 | 13.45
Output  | 0.0013127  | 0.0013127  | 0.0013127  |   0.0 | 32.49
Modify  | 0.00052738 | 0.00052738 | 0.00052738 |   0.0 | 13.05
Other   |            | 0.0008569  |            |       | 21.21

Nlocal:    2 ave 2 max 2 min
Histogram: 1 0 0 0 0 0 0 0 0 0
Nghost:    0 ave 0 max 0 min
Histogram: 1 0 0 0 0 0 0 0 0 0
Neighs:    1 ave 1 max 1 min
Histogram: 1 0 0 0 0 0 0 0 0 0

Total # of neighbors = 1
Ave neighs/atom = 0.5
Ave special neighs/atom = 0
Neighbor list builds = 0
Dangerous builds = 0
Displacing atoms ...
Neighbor list info ...
  update every 1 steps, delay 10 steps, check yes
  max neighbors/atom: 2000, page size: 100000
  master list distance cutoff = 2.8
  ghost atom cutoff = 2.8
  binsize = 1.4, bins = 29 29 29
  6 neighbor lists, perpetual/occasional/extra = 5 1 0
  (1) pair lj/expand/twopiece, perpetual, skip from (6)
      attributes: half, newton on
      pair build: skip
      stencil: none
      bin: none
  (2) pair soft/shift, perpetual, skip from (6)
      attributes: half, newton on
      pair build: skip
      stencil: none
      bin: none
  (3) pair zero, perpetual, skip from (6)
      attributes: half, newton on
      pair build: skip
      stencil: none
      bin: none
  (4) pair morse, perpetual, skip from (6)
      attributes: half, newton on
      pair build: skip
      stencil: none
      bin: none
  (5) compute pair/local, occasional, copy from (6)
      attributes: half, newton on
      pair build: copy
      stencil: none
      bin: none
  (6) neighbor class addition, perpetual
      attributes: half, newton on
      pair build: half/bin/newton
      stencil: half/bin/3d/newton
      bin: standard
Setting up Verlet run ...
  Unit style    : lj
  Current step  : 75000
  Time step     : 0.001
Per MPI rank memory allocation (min/avg/max) = 9.201 | 9.201 | 9.201 Mbytes
Step Temp E_pair E_mol TotEng Press 
   75000            0 3.1974423e-14            0 3.1974423e-14     0.000125 
   75200            0 3.1974423e-14            0 3.1974423e-14     0.000125 
   75400            0 3.1974423e-14            0 3.1974423e-14     0.000125 
   75600            0 3.1974423e-14            0 3.1974423e-14     0.000125 
   75800            0 3.1974423e-14            0 3.1974423e-14     0.000125 
   76000            0 3.1974423e-14            0 3.1974423e-14     0.000125 
Loop time of 0.00390005 on 1 procs for 1000 steps with 2 atoms

Performance: 22153555.789 tau/day, 256406.896 timesteps/s
0.0% CPU use with 1 MPI tasks x 1 OpenMP threads

MPI task timing breakdown:
Section |  min time  |  avg time  |  max time  |%varavg| %total
---------------------------------------------------------------
Pair    | 0.00049543 | 0.00049543 | 0.00049543 |   0.0 | 12.70
Bond    | 0.00031829 | 0.00031829 | 0.00031829 |   0.0 |  8.16
Neigh   | 0          | 0          | 0          |   0.0 |  0.00
Comm    | 0.00054169 | 0.00054169 | 0.00054169 |   0.0 | 13.89
Output  | 0.0012026  | 0.0012026  | 0.0012026  |   0.0 | 30.84
Modify  | 0.00053096 | 0.00053096 | 0.00053096 |   0.0 | 13.61
Other   |            | 0.0008111  |            |       | 20.80

Nlocal:    2 ave 2 max 2 min
Histogram: 1 0 0 0 0 0 0 0 0 0
Nghost:    0 ave 0 max 0 min
Histogram: 1 0 0 0 0 0 0 0 0 0
Neighs:    1 ave 1 max 1 min
Histogram: 1 0 0 0 0 0 0 0 0 0

Total # of neighbors = 1
Ave neighs/atom = 0.5
Ave special neighs/atom = 0
Neighbor list builds = 0
Dangerous builds = 0
Displacing atoms ...
Neighbor list info ...
  update every 1 steps, delay 10 steps, check yes
  max neighbors/atom: 2000, page size: 100000
  master list distance cutoff = 2.8
  ghost atom cutoff = 2.8
  binsize = 1.4, bins = 29 29 29
  6 neighbor lists, perpetual/occasional/extra = 5 1 0
  (1) pair lj/expand/twopiece, perpetual, skip from (6)
      attributes: half, newton on
      pair build: skip
      stencil: none
      bin: none
  (2) pair soft/shift, perpetual, skip from (6)
      attributes: half, newton on
      pair build: skip
      stencil: none
      bin: none
  (3) pair zero, perpetual, skip from (6)
      attributes: half, newton on
      pair build: skip
      stencil: none
      bin: none
  (4) pair morse, perpetual, skip from (6)
      attributes: half, newton on
      pair build: skip
      stencil: none
      bin: none
  (5) compute pair/local, occasional, copy from (6)
      attributes: half, newton on
      pair build: copy
      stencil: none
      bin: none
  (6) neighbor class addition, perpetual
      attributes: half, newton on
      pair build: half/bin/newton
      stencil: half/bin/3d/newton
      bin: standard
Setting up Verlet run ...
  Unit style    : lj
  Current step  : 76000
  Time step     : 0.001
Per MPI rank memory allocation (min/avg/max) = 9.201 | 9.201 | 9.201 Mbytes
Step Temp E_pair E_mol TotEng Press 
   76000            0   0.70911947            0   0.70911947 0.00024833173 
   76200            0   0.70911947            0   0.70911947 0.00024833173 
   76400            0   0.70911947            0   0.70911947 0.00024833173 
   76600            0   0.70911947            0   0.70911947 0.00024833173 
   76800            0   0.70911947            0   0.70911947 0.00024833173 
   77000            0   0.70911947            0   0.70911947 0.00024833173 
Loop time of 0.0046351 on 1 procs for 1000 steps with 2 atoms

Performance: 18640392.243 tau/day, 215745.281 timesteps/s
0.0% CPU use with 1 MPI tasks x 1 OpenMP threads

MPI task timing breakdown:
Section |  min time  |  avg time  |  max time  |%varavg| %total
---------------------------------------------------------------
Pair    | 0.00057387 | 0.00057387 | 0.00057387 |   0.0 | 12.38
Bond    | 0.00034618 | 0.00034618 | 0.00034618 |   0.0 |  7.47
Neigh   | 0          | 0          | 0          |   0.0 |  0.00
Comm    | 0.00058889 | 0.00058889 | 0.00058889 |   0.0 | 12.71
Output  | 0.0016928  | 0.0016928  | 0.0016928  |   0.0 | 36.52
Modify  | 0.00055861 | 0.00055861 | 0.00055861 |   0.0 | 12.05
Other   |            | 0.0008748  |            |       | 18.87

Nlocal:    2 ave 2 max 2 min
Histogram: 1 0 0 0 0 0 0 0 0 0
Nghost:    0 ave 0 max 0 min
Histogram: 1 0 0 0 0 0 0 0 0 0
Neighs:    1 ave 1 max 1 min
Histogram: 1 0 0 0 0 0 0 0 0 0

Total # of neighbors = 1
Ave neighs/atom = 0.5
Ave special neighs/atom = 0
Neighbor list builds = 0
Dangerous builds = 0
Displacing atoms ...
Neighbor list info ...
  update every 1 steps, delay 10 steps, check yes
  max neighbors/atom: 2000, page size: 100000
  master list distance cutoff = 2.8
  ghost atom cutoff = 2.8
  binsize = 1.4, bins = 29 29 29
  6 neighbor lists, perpetual/occasional/extra = 5 1 0
  (1) pair lj/expand/twopiece, perpetual, skip from (6)
      attributes: half, newton on
      pair build: skip
      stencil: none
      bin: none
  (2) pair soft/shift, perpetual, skip from (6)
      attributes: half, newton on
      pair build: skip
      stencil: none
      bin: none
  (3) pair zero, perpetual, skip from (6)
      attributes: half, newton on
      pair build: skip
      stencil: none
      bin: none
  (4) pair morse, perpetual, skip from (6)
      attributes: half, newton on
      pair build: skip
      stencil: none
      bin: none
  (5) compute pair/local, occasional, copy from (6)
      attributes: half, newton on
      pair build: copy
      stencil: none
      bin: none
  (6) neighbor class addition, perpetual
      attributes: half, newton on
      pair build: half/bin/newton
      stencil: half/bin/3d/newton
      bin: standard
Setting up Verlet run ...
  Unit style    : lj
  Current step  : 77000
  Time step     : 0.001
Per MPI rank memory allocation (min/avg/max) = 9.201 | 9.201 | 9.201 Mbytes
Step Temp E_pair E_mol TotEng Press 
   77000            0    2.1413162            0    2.1413162 0.00047381439 
   77200            0    2.1413162            0    2.1413162 0.00047381439 
   77400            0    2.1413162            0    2.1413162 0.00047381439 
   77600            0    2.1413162            0    2.1413162 0.00047381439 
   77800            0    2.1413162            0    2.1413162 0.00047381439 
   78000            0    2.1413162            0    2.1413162 0.00047381439 
Loop time of 0.00460696 on 1 procs for 1000 steps with 2 atoms

Performance: 18754223.754 tau/day, 217062.775 timesteps/s
0.0% CPU use with 1 MPI tasks x 1 OpenMP threads

MPI task timing breakdown:
Section |  min time  |  avg time  |  max time  |%varavg| %total
---------------------------------------------------------------
Pair    | 0.00057483 | 0.00057483 | 0.00057483 |   0.0 | 12.48
Bond    | 0.00033355 | 0.00033355 | 0.00033355 |   0.0 |  7.24
Neigh   | 0          | 0          | 0          |   0.0 |  0.00
Comm    | 0.00056481 | 0.00056481 | 0.00056481 |   0.0 | 12.26
Output  | 0.0016322  | 0.0016322  | 0.0016322  |   0.0 | 35.43
Modify  | 0.00055695 | 0.00055695 | 0.00055695 |   0.0 | 12.09
Other   |            | 0.0009446  |            |       | 20.50

Nlocal:    2 ave 2 max 2 min
Histogram: 1 0 0 0 0 0 0 0 0 0
Nghost:    0 ave 0 max 0 min
Histogram: 1 0 0 0 0 0 0 0 0 0
Neighs:    1 ave 1 max 1 min
Histogram: 1 0 0 0 0 0 0 0 0 0

Total # of neighbors = 1
Ave neighs/atom = 0.5
Ave special neighs/atom = 0
Neighbor list builds = 0
Dangerous builds = 0
Displacing atoms ...
Neighbor list info ...
  update every 1 steps, delay 10 steps, check yes
  max neighbors/atom: 2000, page size: 100000
  master list distance cutoff = 2.8
  ghost atom cutoff = 2.8
  binsize = 1.4, bins = 29 29 29
  6 neighbor lists, perpetual/occasional/extra = 5 1 0
  (1) pair lj/expand/twopiece, perpetual, skip from (6)
      attributes: half, newton on
      pair build: skip
      stencil: none
      bin: none
  (2) pair soft/shift, perpetual, skip from (6)
      attributes: half, newton on
      pair build: skip
      stencil: none
      bin: none
  (3) pair zero, perpetual, skip from (6)
      attributes: half, newton on
      pair build: skip
      stencil: none
      bin: none
  (4) pair morse, perpetual, skip from (6)
      attributes: half, newton on
      pair build: skip
      stencil: none
      bin: none
  (5) compute pair/local, occasional, copy from (6)
      attributes: half, newton on
      pair build: copy
      stencil: none
      bin: none
  (6) neighbor class addition, perpetual
      attributes: half, newton on
      pair build: half/bin/newton
      stencil: half/bin/3d/newton
      bin: standard
Setting up Verlet run ...
  Unit style    : lj
  Current step  : 78000
  Time step     : 0.001
Per MPI rank memory allocation (min/avg/max) = 9.201 | 9.201 | 9.201 Mbytes
Step Temp E_pair E_mol TotEng Press 
   78000            0     4.966783            0     4.966783 0.00089001002 
   78200            0     4.966783            0     4.966783 0.00089001002 
   78400            0     4.966783            0     4.966783 0.00089001002 
   78600            0     4.966783            0     4.966783 0.00089001002 
   78800            0     4.966783            0     4.966783 0.00089001002 
   79000            0     4.966783            0     4.966783 0.00089001002 
Loop time of 0.00380993 on 1 procs for 1000 steps with 2 atoms

Performance: 22677588.586 tau/day, 262472.090 timesteps/s
410.1% CPU use with 1 MPI tasks x 1 OpenMP threads

MPI task timing breakdown:
Section |  min time  |  avg time  |  max time  |%varavg| %total
---------------------------------------------------------------
Pair    | 0.00047231 | 0.00047231 | 0.00047231 |   0.0 | 12.40
Bond    | 0.00031257 | 0.00031257 | 0.00031257 |   0.0 |  8.20
Neigh   | 0          | 0          | 0          |   0.0 |  0.00
Comm    | 0.00051427 | 0.00051427 | 0.00051427 |   0.0 | 13.50
Output  | 0.001153   | 0.001153   | 0.001153   |   0.0 | 30.26
Modify  | 0.00053668 | 0.00053668 | 0.00053668 |   0.0 | 14.09
Other   |            | 0.0008211  |            |       | 21.55

Nlocal:    2 ave 2 max 2 min
Histogram: 1 0 0 0 0 0 0 0 0 0
Nghost:    0 ave 0 max 0 min
Histogram: 1 0 0 0 0 0 0 0 0 0
Neighs:    1 ave 1 max 1 min
Histogram: 1 0 0 0 0 0 0 0 0 0

Total # of neighbors = 1
Ave neighs/atom = 0.5
Ave special neighs/atom = 0
Neighbor list builds = 0
Dangerous builds = 0
Displacing atoms ...
Neighbor list info ...
  update every 1 steps, delay 10 steps, check yes
  max neighbors/atom: 2000, page size: 100000
  master list distance cutoff = 2.8
  ghost atom cutoff = 2.8
  binsize = 1.4, bins = 29 29 29
  6 neighbor lists, perpetual/occasional/extra = 5 1 0
  (1) pair lj/expand/twopiece, perpetual, skip from (6)
      attributes: half, newton on
      pair build: skip
      stencil: none
      bin: none
  (2) pair soft/shift, perpetual, skip from (6)
      attributes: half, newton on
      pair build: skip
      stencil: none
      bin: none
  (3) pair zero, perpetual, skip from (6)
      attributes: half, newton on
      pair build: skip
      stencil: none
      bin: none
  (4) pair morse, perpetual, skip from (6)
      attributes: half, newton on
      pair build: skip
      stencil: none
      bin: none
  (5) compute pair/local, occasional, copy from (6)
      attributes: half, newton on
      pair build: copy
      stencil: none
      bin: none
  (6) neighbor class addition, perpetual
      attributes: half, newton on
      pair build: half/bin/newton
      stencil: half/bin/3d/newton
      bin: standard
Setting up Verlet run ...
  Unit style    : lj
  Current step  : 79000
  Time step     : 0.001
Per MPI rank memory allocation (min/avg/max) = 9.201 | 9.201 | 9.201 Mbytes
Step Temp E_pair E_mol TotEng Press 
   79000            0     10.51293            0     10.51293 0.0016699395 
   79200            0     10.51293            0     10.51293 0.0016699395 
   79400            0     10.51293            0     10.51293 0.0016699395 
   79600            0     10.51293            0     10.51293 0.0016699395 
   79800            0     10.51293            0     10.51293 0.0016699395 
   80000            0     10.51293            0     10.51293 0.0016699395 
Loop time of 0.00401902 on 1 procs for 1000 steps with 2 atoms

Performance: 21497767.432 tau/day, 248816.753 timesteps/s
0.0% CPU use with 1 MPI tasks x 1 OpenMP threads

MPI task timing breakdown:
Section |  min time  |  avg time  |  max time  |%varavg| %total
---------------------------------------------------------------
Pair    | 0.00050616 | 0.00050616 | 0.00050616 |   0.0 | 12.59
Bond    | 0.0003016  | 0.0003016  | 0.0003016  |   0.0 |  7.50
Neigh   | 0          | 0          | 0          |   0.0 |  0.00
Comm    | 0.0005641  | 0.0005641  | 0.0005641  |   0.0 | 14.04
Output  | 0.0012972  | 0.0012972  | 0.0012972  |   0.0 | 32.28
Modify  | 0.0005219  | 0.0005219  | 0.0005219  |   0.0 | 12.99
Other   |            | 0.000828   |            |       | 20.60

Nlocal:    2 ave 2 max 2 min
Histogram: 1 0 0 0 0 0 0 0 0 0
Nghost:    0 ave 0 max 0 min
Histogram: 1 0 0 0 0 0 0 0 0 0
Neighs:    1 ave 1 max 1 min
Histogram: 1 0 0 0 0 0 0 0 0 0

Total # of neighbors = 1
Ave neighs/atom = 0.5
Ave special neighs/atom = 0
Neighbor list builds = 0
Dangerous builds = 0
Displacing atoms ...
Neighbor list info ...
  update every 1 steps, delay 10 steps, check yes
  max neighbors/atom: 2000, page size: 100000
  master list distance cutoff = 2.8
  ghost atom cutoff = 2.8
  binsize = 1.4, bins = 29 29 29
  6 neighbor lists, perpetual/occasional/extra = 5 1 0
  (1) pair lj/expand/twopiece, perpetual, skip from (6)
      attributes: half, newton on
      pair build: skip
      stencil: none
      bin: none
  (2) pair soft/shift, perpetual, skip from (6)
      attributes: half, newton on
      pair build: skip
      stencil: none
      bin: none
  (3) pair zero, perpetual, skip from (6)
      attributes: half, newton on
      pair build: skip
      stencil: none
      bin: none
  (4) pair morse, perpetual, skip from (6)
      attributes: half, newton on
      pair build: skip
      stencil: none
      bin: none
  (5) compute pair/local, occasional, copy from (6)
      attributes: half, newton on
      pair build: copy
      stencil: none
      bin: none
  (6) neighbor class addition, perpetual
      attributes: half, newton on
      pair build: half/bin/newton
      stencil: half/bin/3d/newton
      bin: standard
Setting up Verlet run ...
  Unit style    : lj
  Current step  : 80000
  Time step     : 0.001
Per MPI rank memory allocation (min/avg/max) = 9.201 | 9.201 | 9.201 Mbytes
Step Temp E_pair E_mol TotEng Press 
   80000            0    21.474436            0    21.474436 0.0031611416 
   80200            0    21.474436            0    21.474436 0.0031611416 
   80400            0    21.474436            0    21.474436 0.0031611416 
   80600            0    21.474436            0    21.474436 0.0031611416 
   80800            0    21.474436            0    21.474436 0.0031611416 
   81000            0    21.474436            0    21.474436 0.0031611416 
Loop time of 0.00471306 on 1 procs for 1000 steps with 2 atoms

Performance: 18332045.002 tau/day, 212176.447 timesteps/s
0.0% CPU use with 1 MPI tasks x 1 OpenMP threads

MPI task timing breakdown:
Section |  min time  |  avg time  |  max time  |%varavg| %total
---------------------------------------------------------------
Pair    | 0.00058246 | 0.00058246 | 0.00058246 |   0.0 | 12.36
Bond    | 0.00033426 | 0.00033426 | 0.00033426 |   0.0 |  7.09
Neigh   | 0          | 0          | 0          |   0.0 |  0.00
Comm    | 0.00057578 | 0.00057578 | 0.00057578 |   0.0 | 12.22
Output  | 0.0017188  | 0.0017188  | 0.0017188  |   0.0 | 36.47
Modify  | 0.00057387 | 0.00057387 | 0.00057387 |   0.0 | 12.18
Other   |            | 0.0009279  |            |       | 19.69

Nlocal:    2 ave 2 max 2 min
Histogram: 1 0 0 0 0 0 0 0 0 0
Nghost:    0 ave 0 max 0 min
Histogram: 1 0 0 0 0 0 0 0 0 0
Neighs:    1 ave 1 max 1 min
Histogram: 1 0 0 0 0 0 0 0 0 0

Total # of neighbors = 1
Ave neighs/atom = 0.5
Ave special neighs/atom = 0
Neighbor list builds = 0
Dangerous builds = 0
Total wall time: 0:00:00
