LAMMPS (5 Jun 2019)
OMP_NUM_THREADS environment is not set. Defaulting to 1 thread. (src/comm.cpp:88)
  using 1 OpenMP thread(s) per MPI task


# ----------------- Init Section -----------------

include "system.in.init"
        units lj
        atom_style angle
        pair_style hybrid lj/expand/twopiece 2.5 soft/shift 0.3 zero 1 morse 2.5
        bond_style hybrid harmonic
        angle_style hybrid harmonic
        special_bonds lj 0.0 0.0 0.0


# ----------------- Atom Definition Section -----------------

read_data "system.data"
  orthogonal box = (-20 -20 -20) to (20 20 20)
  1 by 1 by 1 MPI processor grid
  reading atoms ...
  825 atoms
  scanning bonds ...
  1 = max bonds/atom
  scanning angles ...
  1 = max angles/atom
  reading bonds ...
  800 bonds
  reading angles ...
  725 angles
  2 = max # of 1-2 neighbors
  2 = max # of 1-3 neighbors
  4 = max # of 1-4 neighbors
  6 = max # of special neighbors
  special bonds CPU = 0.00457134 secs
  read_data CPU = 0.0221439 secs

# ----------------- Settings Section -----------------

include "system.in.settings"
       pair_coeff 2 2 lj/expand/twopiece 0.5 1 0.5 0.
        pair_coeff 3 3 lj/expand/twopiece 1.0 1 0.5 0.
        pair_coeff 4 4 lj/expand/twopiece 1.0 1 0.5 0.
        pair_coeff 3 4 lj/expand/twopiece 1.0 1 0.5 0.
        pair_coeff 2 3 lj/expand/twopiece 0.5 1 0.5 0.
        pair_coeff 2 4 lj/expand/twopiece 0.5 1 0.5 0.

        pair_coeff 5 5 soft/shift 1.5 0.2
pair_coeff 2 5 zero
pair_coeff 1 5 zero
pair_coeff 3 5 zero
pair_coeff 4 5 zero

        pair_coeff 8 8 lj/expand/twopiece 0.5 1 0.5 0.
pair_coeff 5 8 lj/expand/twopiece 0.5 1 0.5 0.
pair_coeff 2 8 zero
pair_coeff 1 8 morse 100 4 0.5
pair_coeff 3 8 zero
pair_coeff 4 8 zero
pair_coeff 6 8 zero
pair_coeff 7 8 zero

        pair_coeff 6 6 soft/shift 1.5 0.2
pair_coeff 2 6 zero
pair_coeff 1 6 zero
pair_coeff 3 6 zero
pair_coeff 4 6 zero
        pair_coeff 6 7 soft/shift 1.5 0.2

        pair_coeff 7 7 soft/shift 1.5 0.2
pair_coeff 2 7 zero
pair_coeff 1 7 zero
pair_coeff 3 7 zero
pair_coeff 4 7 zero

        pair_coeff 1 1 lj/expand/twopiece 0.5 1 0.8 0.
        pair_coeff 1 2 lj/expand/twopiece 0.5 1 0.8 0.
        pair_coeff 1 3 lj/expand/twopiece 0.5 1 0.8 0.
        pair_coeff 1 4 lj/expand/twopiece 0.5 1 0.8 0.


        bond_coeff 1 harmonic 1000 0.4
        bond_coeff 2 harmonic 1000 0.4
        bond_coeff 3 harmonic 1000 0.15

        angle_coeff 1 harmonic 20 180
        angle_coeff 2 harmonic 20 180
        angle_coeff 3 harmonic 20 180
        angle_coeff 4 harmonic 20 180


# ----------------- Run Section -----------------

include "system.in.run"
  compute bcomp all property/local btype batom1 batom2
  dump dxyz all atom 1000 poly.lammpstrj
  dump bdump all local 1000 bonddump.dump c_bcomp[1] c_bcomp[2] c_bcomp[3]

  thermo 200
  minimize 1.0e-6 1.0e-8 10000 100000
WARNING: Using 'neigh_modify every 1 delay 0 check yes' setting during minimization (src/min.cpp:168)
Neighbor list info ...
  update every 1 steps, delay 0 steps, check yes
  max neighbors/atom: 2000, page size: 100000
  master list distance cutoff = 2.8
  ghost atom cutoff = 2.8
  binsize = 1.4, bins = 29 29 29
  5 neighbor lists, perpetual/occasional/extra = 5 0 0
  (1) pair lj/expand/twopiece, perpetual, skip from (5)
      attributes: half, newton on
      pair build: skip
      stencil: none
      bin: none
  (2) pair soft/shift, perpetual, skip from (5)
      attributes: half, newton on
      pair build: skip
      stencil: none
      bin: none
  (3) pair zero, perpetual, skip from (5)
      attributes: half, newton on
      pair build: skip
      stencil: none
      bin: none
  (4) pair morse, perpetual, skip from (5)
      attributes: half, newton on
      pair build: skip
      stencil: none
      bin: none
  (5) neighbor class addition, perpetual
      attributes: half, newton on
      pair build: half/bin/newton
      stencil: half/bin/3d/newton
      bin: standard
Per MPI rank memory allocation (min/avg/max) = 10.11 | 10.11 | 10.11 Mbytes
Step Temp E_pair E_mol TotEng Press 
       0            0  -0.00138277    661.87322    661.87184   -6.0583858 
      64            0 -0.0013469811   0.12984268    0.1284957 -0.027840586 
Loop time of 0.0500347 on 1 procs for 64 steps with 825 atoms

94.5% CPU use with 1 MPI tasks x 1 OpenMP threads

Minimization stats:
  Stopping criterion = energy tolerance
  Energy initial, next-to-last, final = 
         661.871839472     0.128495796355     0.128495697575
  Force two-norm initial, final = 69027.6 269.236
  Force max component initial, final = 3958.08 21.7372
  Final line search alpha, max atom move = 0.00115009 0.0249997
  Iterations, force evaluations = 64 191

MPI task timing breakdown:
Section |  min time  |  avg time  |  max time  |%varavg| %total
---------------------------------------------------------------
Pair    | 0.014244   | 0.014244   | 0.014244   |   0.0 | 28.47
Bond    | 0.020481   | 0.020481   | 0.020481   |   0.0 | 40.93
Neigh   | 0.0079914  | 0.0079914  | 0.0079914  |   0.0 | 15.97
Comm    | 0.00028183 | 0.00028183 | 0.00028183 |   0.0 |  0.56
Output  | 0          | 0          | 0          |   0.0 |  0.00
Modify  | 0          | 0          | 0          |   0.0 |  0.00
Other   |            | 0.007036   |            |       | 14.06

Nlocal:    825 ave 825 max 825 min
Histogram: 1 0 0 0 0 0 0 0 0 0
Nghost:    0 ave 0 max 0 min
Histogram: 1 0 0 0 0 0 0 0 0 0
Neighs:    2120 ave 2120 max 2120 min
Histogram: 1 0 0 0 0 0 0 0 0 0

Total # of neighbors = 2120
Ave neighs/atom = 2.5697
Ave special neighs/atom = 5.63636
Neighbor list builds = 11
Dangerous builds = 0
  timestep 0.001
  velocity all create 3.0 49840
  fix   fxnvt all nvt temp 3.0 3.0 500.0
  run   500000
Neighbor list info ...
  update every 1 steps, delay 10 steps, check yes
  max neighbors/atom: 2000, page size: 100000
  master list distance cutoff = 2.8
  ghost atom cutoff = 2.8
  binsize = 1.4, bins = 29 29 29
  5 neighbor lists, perpetual/occasional/extra = 5 0 0
  (1) pair lj/expand/twopiece, perpetual, skip from (5)
      attributes: half, newton on
      pair build: skip
      stencil: none
      bin: none
  (2) pair soft/shift, perpetual, skip from (5)
      attributes: half, newton on
      pair build: skip
      stencil: none
      bin: none
  (3) pair zero, perpetual, skip from (5)
      attributes: half, newton on
      pair build: skip
      stencil: none
      bin: none
  (4) pair morse, perpetual, skip from (5)
      attributes: half, newton on
      pair build: skip
      stencil: none
      bin: none
  (5) neighbor class addition, perpetual
      attributes: half, newton on
      pair build: half/bin/newton
      stencil: half/bin/3d/newton
      bin: standard
Per MPI rank memory allocation (min/avg/max) = 10.18 | 10.18 | 10.18 Mbytes
Step Temp E_pair E_mol TotEng Press 
      64            3 -0.0013469811   0.12984268    4.6230412  0.010784414 
     200    1.8526209 -0.0018966223    1.8553989    4.6290651 -0.018530462 
     400    1.8022921 -0.0077516313    1.9371553     4.629565  0.016724334 
     600     1.609145 -0.027280852     2.247402    4.6309129  0.011234904 
     800    1.6690792 -0.049336063    2.1787087    4.6299568 -0.003408942 
    1000    1.6778499 -0.058482392    2.1745752    4.6298171 -0.0013066067 
    1200    1.6811252 -0.062709436    2.1733186    4.6292404  0.011332594 
    1400    1.6604778 -0.070894009     2.213481    4.6302846 -0.0069304158 
    1600    1.6730121 -0.077237112    2.2013351    4.6305743 0.0020817875 
    1800    1.7325193 -0.073378198     2.106989    4.6292397 0.0045745661 
    2000    1.7032671 -0.061554079    2.1399759    4.6302257 -0.0023195261 
    2200    1.6386224 -0.068252857    2.2434672    4.6301687   0.00214402 
    2400    1.6312307  -0.07284299    2.2587791    4.6298163 -0.00018057052 
    2600    1.6365988 -0.083365012    2.2627794     4.631337 0.0052476225 
    2800    1.6207125 -0.080976139    2.2835032    4.6306491 0.0024822098 
    3000    1.6708991 -0.084713203    2.2124494    4.6310468 -0.00046243526 
    3200    1.6250102 -0.077214676    2.2732063    4.6305524 -0.0057767024 
    3400    1.6676255 -0.083865834    2.2165957    4.6311362 0.0045139387 
    3600    1.6948726 -0.084401464    2.1759775    4.6308033 0.0023499235 
    3800    1.7165014 -0.064959817    2.1248488    4.6315201  0.003389191 
    4000    1.6307771 -0.069250534    2.2578743    4.6318243 -0.0071510025 
    4200    1.7099631 -0.076506937    2.1468278    4.6321564   0.00145575 
    4400    1.6431297 -0.069962098    2.2397758    4.6315207  0.005303176 
    4600    1.6063063 -0.067028912    2.2913229    4.6308329 0.0010143143 
    4800    1.5726916 -0.062319157    2.3372627    4.6311215 -0.0022019773 
    5000    1.6326166 -0.068520949     2.253901    4.6313366 0.0026417415 
    5200    1.6428338 -0.066822694    2.2361188    4.6305598 0.0058789184 
    5400    1.6408508 -0.059031052    2.2312651    4.6305269 -0.0075352205 
    5600    1.6901464 -0.058225831    2.1568543     4.630775 0.0068354622 
    5800    1.6652674 -0.054577066    2.1902148    4.6305111 0.00026050075 
    6000    1.6230547 -0.056567936    2.2550759     4.630139 -0.0012361052 
    6200    1.6750664 -0.057767504    2.1792398    4.6310263 0.0011061067 
    6400    1.6648391 -0.056558101    2.1931668    4.6308403 0.0002434059 
    6600    1.6872481 -0.056417317    2.1592155    4.6306026 0.0062533404 
    6800    1.6367346 -0.053385888    2.2325756    4.6313158 0.0034781841 
    7000    1.7002251 -0.058788603    2.1419185    4.6303761 0.00073664539 
    7200    1.6955072 -0.051696381    2.1421655    4.6306471 -0.00022869393 
    7400     1.709405 -0.043766991    2.1135204    4.6307529 0.0043775329 
    7600    1.7130675 -0.055477622    2.1205239    4.6315329 0.0012021559 
    7800    1.6877815 -0.053766159    2.1561241    4.6309615 -0.0015397728 
    8000    1.6216834 -0.050121928    2.2520626    4.6315173 -0.0015177786 
    8200    1.6297408  -0.04284563    2.2327414    4.6315439 -0.0038451374 
    8400    1.7572113 -0.038749314    2.0371706    4.6310433 0.0065690764 
    8600    1.6166123 -0.045127662    2.2547209    4.6315723 -0.00073952023 
    8800    1.6258009 -0.048239168    2.2441093    4.6316155 -0.0040928559 
    9000    1.6833843 -0.050212883    2.1593818    4.6311847 0.00063158613 
    9200      1.62295 -0.048140644    2.2483146     4.631648 -0.0033510873 
    9400    1.6641652 -0.047021776    2.1844951    4.6306954 -0.0020782727 
    9600    1.6558031 -0.048818168    2.1986443    4.6305203 0.00070962782 
    9800    1.6919459 -0.065898324    2.1616041    4.6305484 0.0015299276 
   10000    1.6728669  -0.06047464    2.1851569     4.630941 -0.0034304082 
   10200    1.6477041 -0.058184528     2.220436    4.6308117 0.0018912159 
   10400    1.6643068 -0.051056713    2.1894273    4.6318048 -0.00088095673 
   10600    1.6962119 -0.053704965    2.1440034    4.6315322 -0.0018740095 
   10800    1.6507215 -0.040533455    2.1987015     4.631249 -0.0016639375 
   11000    1.6139569 -0.042015456    2.2557454    4.6317308 0.0079026235 
   11200    1.7046402 -0.041687095    2.1198029    4.6319767 0.0014456595 
   11400    1.6474294 -0.035781422    2.2000559    4.6324232 0.00021029582 
   11600    1.6737654  -0.03447241    2.1595173    4.6326498 -0.00021815027 
   11800    1.6355856 -0.037063515    2.2193709     4.632712 0.0011092393 
   12000    1.6832814 -0.025222414    2.1365216    4.6331608 0.00053244557 
   12200    1.6215135 -0.020456317    2.2253772    4.6342429 0.00077426408 
   12400    1.6811912 -0.023548438    2.1386278    4.6338095 0.0023301978 
   12600     1.641823 -0.015605377    2.1898833    4.6340272 0.0021846352 
   12800    1.6602224  -0.01727377    2.1641389      4.63418 0.0023874752 
   13000    1.6607656 -0.017306216    2.1634217    4.6342444 -0.00034217996 
   13200    1.6471121 -0.017409301    2.1839929    4.6342571 0.0070650564 
   13400    1.6277516 -0.020729096    2.2160851    4.6340239 0.0011580975 
   13600    1.6489137 -0.013218973    2.1771415     4.634295  0.010562166 
   13800    1.6719692 -0.017054428    2.1460043    4.6338637 0.00041724533 
   14000    1.6470302 -0.017419221     2.184398    4.6345294 -0.00064526419 
   14200    1.5743676 -0.019154441    2.2949441    4.6344786 0.00090969508 
   14400    1.6466376 -0.013628814    2.1810934    4.6344272 -0.00065217939 
   14600    1.5909753 -0.012371785    2.2635741    4.6347726 -0.0023860518 
   14800    1.6194285 -0.014820988    2.2233985    4.6347758 0.0010822243 
   15000     1.625262 -0.013498668     2.213111    4.6345504 -0.003250471 
   15200    1.6325997 -0.013085081    2.2019517    4.6347978 0.0031031924 
   15400    1.6428913 -0.012632596    2.1860126    4.6347298 -0.00021146879 
   15600    1.6481489 -0.011737649    2.1774606    4.6349498 0.00066833024 
   15800    1.5897203 -0.012211777     2.265373    4.6348513 0.0048928306 
   16000    1.6208138 -0.015287043    2.2220709    4.6350576 -0.0022103389 
   16200    1.6313781 -0.014507523    2.2055589    4.6351524 -0.00066550479 
   16400    1.6598333 -0.0092827015    2.1590626    4.6365119 0.0034252165 
   16600    1.6443599 -0.0089493237    2.1817817    4.6363824 0.0008094667 
   16800    1.6611418 -0.010630975    2.1583489    4.6364104 -0.00073748846 
   17000    1.6171018 -0.0076816395    2.2218098    4.6368406 -0.0049250365 
   17200    1.6772224 -0.0070360294    2.1308947    4.6366427 0.0038308365 
   17400    1.6232949 -0.0062631027    2.2115844    4.6373122 0.0018198188 
   17600    1.5957082 -0.0088729543     2.254581     4.636369 -0.00084317152 
   17800     1.562346 -0.010743274    2.3071294    4.6370644 -0.00079358903 
   18000    1.5508353 -0.0022529321    2.3169784    4.6381587 -0.0019465504 
   18200    1.6623346 -0.0081236701    2.1551364    4.6374922 0.0027609969 
   18400    1.6457874 -0.0072089303    2.1789113    4.6373911 0.0021336066 
   18600    1.5946581 -0.0063337245    2.2548849     4.637639 -0.00051550426 
   18800    1.6542413 -0.0053079949    2.1648359    4.6378821 -0.003678183 
   19000    1.6214338 -0.0054249175    2.2138922    4.6376699 -0.0021422928 
   19200    1.6292641 -0.006305064    2.2031231    4.6377519 -0.0013404307 
   19400    1.5960325 -0.0045866492    2.2513953    4.6379555 0.0049067416 
   19600    1.5478092 -0.010481821    2.3299492    4.6383669 -0.00094453474 
   19800    1.5978689 -0.0094093908    2.2536485    4.6381372 -0.0010803411 
   20000    1.6420759  -0.00587652    2.1835969    4.6378486 -0.0020016119 
   20200    1.6276277 -0.010611719     2.209938    4.6378084 0.0023762451 
   20400    1.6233759 -0.0033323899    2.2091901    4.6379699 0.00035050629 
   20600    1.6081467 -0.0034229577    2.2320439    4.6379171 -0.0014404946 
   20800    1.6825242 -0.005693308     2.122717    4.6377509 -0.0014272948 
   21000    1.6228471 -0.0084731064    2.2147083    4.6375551 0.0042693891 
   21200    1.6323886 -0.0055838533     2.198374     4.638405 0.0064086707 
   21400    1.5965195 -0.0056327689    2.2520063      4.63825 0.0014755622 
   21600    1.6399404 -0.0079176422    2.1894554    4.6384666  0.001046608 
   21800    1.6726784 -0.0089400957    2.1407771    4.6378133 -0.002770884 
   22000    1.6258983 -0.0056601285    2.2092528     4.639484 -0.0020440927 
   22200    1.6328332 -0.0034767118     2.196678    4.6394823 -0.00062877502 
   22400    1.6279512 -0.0079994593     2.208414    4.6393814 -0.0032907414 
   22600    1.5944206 -0.002717217    2.2542993    4.6403141 0.0026353764 
   22800    1.6620098 -0.0056936974    2.1555667    4.6398659 -0.0031461562 
   23000    1.6311729 -0.0051775684    2.2010767    4.6396927 0.0018708262 
   23200    1.6303212 -0.0073106992      2.20441    4.6396168 0.0035842387 
   23400    1.5835993 -0.0068568654    2.2744832     4.640146 -0.0077784564 
   23600    1.6409819 -0.0088034033     2.190474    4.6401599 -0.0019408952 
   23800    1.6417668 -0.007721086    2.1875206    4.6394647 0.0011477862 
   24000    1.6674249 -0.0025691572    2.1452343    4.6407709 0.0041693967 
   24200    1.6262011 -0.0080877937     2.210636    4.6388931 -0.001136047 
   24400    1.6117722 -0.0048321427    2.2297254    4.6396212 -0.00084764018 
   24600    1.7073632 -0.010538574    2.0916924    4.6390943  0.001610917 
   24800    1.6779967 -0.0068902255    2.1316761      4.63873 0.0040066327 
   25000    1.6718757 -0.0079358687    2.1421614    4.6389993 0.0042456823 
   25200    1.6963709 -0.0082869236    2.1057568    4.6389419 0.0026771122 
   25400    1.6492179 -0.0070576127    2.1755809    4.6393516 0.0011330254 
   25600    1.6530731 -0.0035533814    2.1660896    4.6391402 0.0017919588 
   25800     1.674247 -0.0059302847    2.1373484    4.6397445 0.0021734503 
   26000    1.6245061 -0.0048649037    2.2105929    4.6395335 0.0032334928 
   26200    1.6830273 -0.0077844746    2.1256039    4.6393004 0.0072648746 
   26400     1.634244 -0.0088197403    2.1999115    4.6394865 0.0019837541 
   26600    1.6423117 -0.0061935227    2.1861532    4.6404412 0.0018976129 
   26800     1.634629 -0.0050800738    2.1970447    4.6409362 0.0014072658 
   27000    1.6355325 -0.0041536113    2.1949686      4.64114 -0.006983417 
   27200    1.6365122 -0.0028269258    2.1919074    4.6408733 0.0030776756 
   27400    1.6795152 -0.001295894    2.1260128    4.6409359  0.004403565 
   27600    1.6495026 -0.0063889278     2.176109    4.6409748 0.0025736637 
   27800    1.6236414 -0.0048928887    2.2141294    4.6417465 -0.00027346697 
   28000    1.5972698 -0.0021529069     2.251111    4.6419587 0.00030833555 
   28200    1.6275806 -0.0052241564    2.2079847    4.6411722 -0.001883075 
   28400    1.6263533 -0.0060073149    2.2108832    4.6414489 0.0037024783 
   28600     1.658679 -0.0036776629    2.1606705    4.6419955  0.001805518 
   28800    1.6554146 -0.007588564    2.1697508    4.6422743 -0.0003425387 
   29000    1.6801121 -0.0070887733    2.1318552    4.6418798 0.0067420763 
   29200    1.6168074 -0.0089629325    2.2293933    4.6427018 0.0014382056 
   29400     1.641344 -0.0091429537    2.1930385    4.6429274 -0.0003776118 
   29600    1.6479833 -0.013221208    2.1867168    4.6424743  0.005258511 
   29800    1.6382753 -0.014473257    2.2023045    4.6422654 0.0030511584 
   30000    1.6274164 -0.011139885    2.2152169    4.6422426  0.001351273 
   30200     1.612391 -0.0075036081    2.2346967     4.642848 -0.0020165245 
   30400    1.6262716 -0.0050144048    2.2116483    4.6430845 -7.2288557e-05 
   30600    1.6495785 -0.0056687279    2.1770966    4.6427965 0.0034451394 
   30800    1.6075657 -0.007873233    2.2422033    4.6427559 -0.00074190521 
   31000    1.5943612 -0.0093075621    2.2641714    4.6435069 -0.00023594151 
   31200    1.6345884 -0.0047890258    2.1994722    4.6435938 0.0018713221 
   31400    1.6475213 -0.0064805555    2.1814925    4.6432984 0.0014014326 
   31600    1.5667771 -0.0064723842    2.3034402    4.6442847 -0.00020149295 
   31800    1.7345212 -0.0035513485     2.047875    4.6429518 0.00011696315 
   32000    1.6541529 -0.0047168123    2.1698891     4.643394 0.0012436097 
   32200    1.6288701 0.0027208587    2.2006986     4.643763   0.00266392 
   32400    1.5518711 -0.0037612954    2.3231097    4.6443334 0.0027613693 
   32600    1.6580938 -0.0041698754    2.1637793    4.6437355 -0.0032396118 
   32800    1.6411778 -0.0072913131     2.192381    4.6438724 -0.00096451728 
   33000    1.5973254 -0.0045214713    2.2552403    4.6438027 0.0029119571 
   33200    1.6398134 -0.0059159119    2.1934556    4.6442784 0.0029085647 
   33400    1.6351914 -0.0051754539    2.1995719    4.6442104 0.0045501687 
   33600     1.680277 -0.0038641884    2.1303098     4.643806 -0.0024637454 
   33800    1.5611776 -0.0057047868    2.3119804    4.6452035 -0.001178537 
   34000    1.6794561 -0.0069554741    2.1340091    4.6431842 0.0021532442 
   34200     1.654458 -0.0046666813     2.169812    4.6438242 -0.00082226143 
   34400    1.6263132 -0.0037462443    2.2108544     4.643621  0.005412682 
   34600    1.6698899 -0.0056511101    2.1474603    4.6436078 0.0027743415 
   34800    1.6133977 -0.0052653377    2.2323162    4.6442139 0.0031127935 
   35000    1.6565739 -0.0049950289    2.1667942     4.643648 0.0019767664 
   35200    1.6258826 -0.0059965583    2.2150759     4.644947 -0.00084123341 
   35400    1.6309517 -0.0050149696    2.2059862    4.6444335 0.0018700057 
   35600    1.6309044 -0.0052835221     2.205511    4.6436188 0.0036499405 
   35800    1.6687441 -0.0044742506    2.1478639    4.6434716  0.004542429 
   36000    1.6486232 -0.0080942871    2.1815848    4.6434278 -0.0019050327 
   36200    1.6145323 -0.0064068272    2.2314488     4.643905 0.0042569015 
   36400    1.6561103 -0.0073728071     2.170229    4.6440106 0.0051790463 
   36600     1.646728 -0.0074274934    2.1841257    4.6437961 -0.004792579 
   36800    1.6533229 -0.0046948318    2.1713645    4.6436481 -0.0019212305 
   37000    1.6189635 -0.0030200889    2.2215787    4.6440604 0.0011460266 
   37200    1.6273658 -0.0030600016    2.2090001      4.64403 0.0035618343 
   37400    1.6027224 -0.0049865023    2.2482237    4.6444067 -0.001108961 
   37600    1.5891197 -0.0040749023    2.2684404    4.6451558 -0.002772911 
   37800    1.6415684 -0.0085053411    2.1933487    4.6442113 -0.0015730575 
   38000    1.6300522 -0.0048318566    2.2078559    4.6451387 0.0036240863 
   38200    1.6569826 -0.0088753384    2.1707854    4.6443712 -0.0047570447 
   38400    1.6083659 -0.004066578     2.238971    4.6445289 -0.001812721 
   38600    1.6456586 -0.0055106329    2.1835422    4.6435273 0.0018840648 
   38800    1.6540307 -0.0053350711    2.1709872    4.6436908 0.0036768083 
   39000    1.6087023 -0.0060924525    2.2399241    4.6439601 -0.0015521546 
   39200    1.6745399 -0.0091619862    2.1441201    4.6437235 0.0030402711 
   39400    1.6201025 -0.0057346169     2.222133    4.6436065 -0.0013213415 
   39600    1.6020505 -0.0029262477    2.2469915    4.6442282 0.0032847187 
   39800    1.6158965 -0.0054066185    2.2280965    4.6435966 0.0029811561 
   40000    1.6429127 -0.0078378651    2.1901362    4.6436803 0.0022143931 
   40200    1.6588939 -0.003351942     2.162267    4.6442398 0.0042081315 
   40400    1.6554648 -0.0093933854    2.1729295    4.6437233 0.0025771417 
   40600    1.6337244 -0.0082263045    2.2052655    4.6446554  0.004802369 
   40800    1.6017134 -0.0061581648    2.2512562     4.644756 0.0036397075 
   41000    1.6445756 -0.012761089    2.1924245    4.6435366 -0.0026590759 
   41200    1.6707897 -0.011137911    2.1513658    4.6433747 -0.00035056408 
   41400     1.574089 -0.0090728571    2.2948979    4.6440967   0.00113268 
   41600    1.6074266 -0.008863244    2.2449538    4.6443078 -0.0012756974 
   41800    1.6261854 -0.0095513957    2.2184358    4.6452058 -0.0049240634 
   42000    1.6485701 -0.0090796834      2.18325    4.6440282  0.004062496 
   42200    1.6830115 -0.0071344668    2.1293828    4.6437056 0.0032412575 
   42400    1.6221329 -0.012331872    2.2265965    4.6445147 -0.0064563666 
   42600     1.676519 -0.0069456788    2.1392457    4.6440303 0.0015278948 
   42800    1.6494107  -0.01138886    2.1850026    4.6447309  -0.00154455 
   43000    1.6532858 -0.012445341    2.1810608    4.6455382 -0.0019084029 
   43200    1.6105945  -0.01031523    2.2434776    4.6461258 0.0048692335 
   43400      1.59592 -0.0083711481     2.264798    4.6474052 -0.0049520845 
   43600    1.6540435 -0.0090707289    2.1775517    4.6465389 0.00069877459 
   43800    1.6233108 -0.0078660754    2.2229356    4.6470843 0.0019016756 
   44000     1.605139 -0.0055170342    2.2473436    4.6466167 -0.00041850873 
   44200    1.6430937 -0.004244053    2.1896624    4.6470715 -0.0026565352 
   44400    1.5637429 -0.0049509676    2.3094286    4.6472488 0.0022189018 
   44600    1.6446926 -0.0068916053    2.1897064    4.6468633 0.0026888028 
   44800    1.6162161 -0.0073321825     2.233438    4.6474914 0.0019934424 
   45000    1.5908279 -0.0064642708    2.2704049      4.64729 -0.0007672681 
   45200     1.620293 -0.0042170085    2.2246701    4.6479466  0.006729102 
   45400    1.5807319 -0.0061393337    2.2852879    4.6473723 -0.0064962745 
   45600    1.6736257 -0.0053316214    2.1451969    4.6472609 0.0034665579 
   45800    1.6654213 -0.0044603983    2.1566321    4.6472756 0.0055519347 
   46000     1.676482 -0.0020644075    2.1370558    4.6466661 0.0025430384 
   46200    1.6089303 -0.0035960466    2.2402906    4.6471646 -0.0027870322 
   46400    1.5978758 -0.0037929385    2.2563369    4.6464524 0.0024330422 
   46600     1.605238 -0.0054170165    2.2473588    4.6468802 0.00059948021 
   46800    1.6583906 -0.0051511027    2.1672321    4.6466517 -0.0034683049 
   47000    1.6500506 -0.0075296736    2.1820382    4.6465843 0.0077602631 
   47200    1.6607853 -0.0063269002    2.1649168    4.6467483 0.00021012186 
   47400    1.6464799 -0.0054021486    2.1854881    4.6468122 -0.0043026597 
   47600    1.5757816 -0.0060612405     2.292371    4.6471171 0.00013107022 
   47800    1.5895176 -0.0056319997    2.2711444    4.6468987 -0.0039438479 
   48000     1.589897 -0.0052467737    2.2698236    4.6465315  0.001305842 
   48200    1.6220975 -0.0055215911    2.2219434    4.6466189 -0.0025451316 
   48400    1.6820388 -0.0058733496    2.1322609    4.6463875 5.7064863e-05 
   48600    1.6238271 -0.0046963511    2.2187206    4.6468125 0.00090235078 
   48800    1.6458929 -0.0036648074    2.1847409    4.6469229 0.0035781594 
   49000    1.5948328 -0.00035942855    2.2581267    4.6471167 0.0013732585 
   49200    1.6413706  -0.00445366    2.1921987    4.6468166 -0.0005260984 
   49400    1.6409377 -0.0095487741    2.1985831    4.6474574 0.0011987548 
   49600    1.6202101 -0.0092945198    2.2291716    4.6472464 0.0014539234 
   49800    1.5993799 -0.0067639027    2.2581311    4.6475291 0.0013462467 
   50000    1.6893789 -0.0079133604    2.1241785    4.6472619 0.0012120323 
   50200    1.6343865 -0.0081176601    2.2067603    4.6472508 -0.0021503688 
   50400    1.6319042 -0.0049099193     2.207388    4.6473673 0.0064437496 
   50600    1.6772536 -0.0016172068    2.1360695    4.6472831  0.002368316 
   50800    1.5993857 -0.0042220141    2.2558647    4.6478133 0.0043779032 
   51000    1.6076187 -0.0046824177    2.2440688    4.6478915 -0.00084365814 
   51200    1.5756468 -0.0045453134     2.292278     4.648338 -0.0019911129 
   51400    1.6494542 -0.0043424488    2.1811797    4.6480195 0.0022858882 
   51600     1.620507 -0.0049199032    2.2252815    4.6481757 0.0012381475 
   51800    1.6160799 -0.0067878692    2.2341934     4.648587 0.0012315709 
   52000    1.6107488 -0.0087325025    2.2444282    4.6488903 -0.0034521669 
   52200     1.665256 -0.0064327049    2.1601889    4.6486125 0.0031589066 
   52400    1.6160329 -0.0068802003    2.2344486    4.6486795 0.0037372473 
   52600    1.5978668 -0.0079880305    2.2632698    4.6491768 -0.0030173183 
   52800    1.6024412 -0.008215468    2.2556514    4.6481843 -0.0016755752 
   53000     1.643101 -0.0065229108    2.1929895    4.6481306 -0.0036424736 
   53200     1.616478 -0.0073195019     2.234184    4.6486425 0.0018151539 
   53400    1.6484313 -0.0061624794    2.1845444    4.6480317  0.002917923 
   53600    1.6518557 -0.0082430039     2.182162    4.6486991 0.0045178325 
   53800    1.6116704 -0.0050295676    2.2392779    4.6488237 -0.0044737104 
   54000    1.6177763 -0.0027959502    2.2276946    4.6486218 -0.0044058132 
   54200    1.6142939 -0.0022496632    2.2323759     4.648632  0.004000033 
   54400    1.6288742 -0.0049650127    2.2134315    4.6488161 0.0016291877 
   54600    1.6560545 -0.006414732    2.1746405    4.6492965 -0.0011070656 
   54800    1.6638821 -0.0063815393    2.1625417     4.648958 0.0031879896 
   55000    1.6812725 -0.0041268434    2.1340958     4.648821 -0.00022208002 
   55200    1.5785894 -0.0058235317    2.2900123    4.6492028 0.0018267743 
   55400    1.5887994 -0.0075210608    2.2763986     4.649188 0.0053098301 
   55600    1.6149889 -0.006206555    2.2362465    4.6495869 -0.0037351094 
   55800    1.6664373 -0.006044401    2.1592468    4.6498284 0.0010160224 
   56000    1.6112128 -0.0046872567    2.2405398    4.6497423 0.0014037116 
   56200    1.6784679 -0.0044197918    2.1402524    4.6504826 0.0017420129 
   56400    1.6406167 -0.0019500173    2.1938789    4.6498709 0.0027760305 
   56600    1.5758752 -0.0021602906     2.291884    4.6506713 -0.0012150282 
   56800    1.6116398 -0.0023133697    2.2383468    4.6505629 0.0023206279 
   57000    1.5771887 -0.0040710146    2.2916658    4.6505102 0.0022645779 
   57200    1.6574888 -0.0054677023     2.172724    4.6504758 0.0023126412 
   57400    1.5951025 -0.0042001022    2.2653213    4.6508749 -0.0013130124 
   57600     1.682838 -0.0024490546    2.1318681    4.6506164 0.0050915358 
   57800    1.6022441 -0.0032448825    2.2537309     4.650939 -0.002659342 
   58000    1.6267378 -0.0059091235    2.2194605    4.6507003 -0.001770869 
   58200    1.6461812 -0.0044456307    2.1885762    4.6504094 -0.0025084112 
   58400     1.644266 -0.0040605883    2.1914567    4.6508056 0.0035132322 
   58600    1.6525614 -0.007159231    2.1825326    4.6512108 0.00047416685 
   58800    1.6412557 -0.0087450936     2.201206    4.6513604 -0.0029771979 
   59000    1.6334163 -0.0079699899    2.2122351    4.6514197 -0.0030727536 
   59200    1.6679285 -0.0075414218    2.1604128    4.6517315 0.0014879986 
   59400    1.6252446 -0.008100541     2.225271    4.6520823 0.00027808434 
   59600    1.6751643 -0.0090937807    2.1523452    4.6529521 0.0032126768 
   59800    1.6253126 -0.0057903608    2.2239211    4.6531445 0.00080313765 
   60000    1.6087647 -0.0024285486    2.2450471    4.6528405 0.0034729169 
   60200    1.6088503 -0.0058547952    2.2488846      4.65338 -0.0011669251 
   60400    1.5842089 -0.005751795    2.2862747    4.6539559 -0.0041294561 
   60600    1.5839245 -0.0049347541    2.2861969     4.654269 -0.0020178958 
   60800    1.6784836 -0.0069735512    2.1446192    4.6523192 1.4468804e-05 
   61000    1.6483266 -0.0051705411    2.1885051    4.6528276 0.0037717727 
   61200    1.6056453 -0.0057072522    2.2534718    4.6533131 -0.0014199169 
   61400    1.6333023 -0.012011848    2.2178244    4.6527964 0.0047381351 
   61600    1.6452217 -0.013098475    2.2010421    4.6527849 -0.0030719366 
   61800      1.65023 -0.016776275    2.1969976    4.6525659 -0.0020985191 
   62000     1.647145 -0.012313423    2.1971644    4.6525737 0.0035625104 
   62200    1.6834285 -0.0096883033    2.1403166    4.6527102 0.0028495412 
   62400    1.6086282 -0.011650993    2.2558778    4.6542444 -0.0026700941 
   62600    1.6423566 -0.0088532039    2.2020308    4.6537263 -0.00097723838 
   62800    1.6323309 -0.0084328823    2.2172298    4.6543255 0.0011183403 
   63000    1.6332126 -0.0090420915     2.216365    4.6541724 -0.00043720361 
   63200    1.6174377 -0.0071749175    2.2386543    4.6546951 0.0015071876 
   63400    1.6209003 -0.002944342    2.2304053    4.6558642 -0.00060630086 
   63600    1.6779207 -0.0060338957    2.1472221    4.6550185 -0.0033350089 
   63800    1.6982487 -0.0062089872    2.1162462    4.6543225 0.0087637443 
   64000    1.6208582 -0.0063889418    2.2330871    4.6550384 0.0034973094 
   64200    1.5790917 -0.0094724136    2.2993993    4.6556934 -0.0014433759 
   64400    1.6871048 -0.010238851    2.1375917    4.6549426 0.0026015909 
   64600    1.6598457 -0.0074006503    2.1763898    4.6557398 0.0023615583 
   64800    1.6091345 -0.0054491294    2.2502324    4.6555594 -0.0013692712 
   65000    1.6097296 -0.0047604852    2.2495308    4.6564379 -0.0010915662 
   65200    1.6460343 -0.0048483204    2.1946495    4.6558598 -0.0030802207 
   65400    1.5922772 -0.0035301495    2.2747084    4.6566989 0.00047721536 
   65600    1.6341807 -0.0062273673    2.2146681    4.6567406 0.0021402034 
   65800    1.6261692 -0.0067726634    2.2269571    4.6564816 0.0034367345 
   66000    1.6602322 -0.0055811256    2.1748627    4.6566113 -0.0012048196 
   66200     1.662231 -0.0046715327    2.1713446    4.6569973 0.0033940886 
   66400    1.6171728 -0.0036284263    2.2382309    4.6574214 0.00083793976 
   66600    1.6416521 -0.0036880711    2.2011725    4.6569777 0.0027516034 
   66800    1.6187527 -0.0046010518    2.2370814    4.6576662 -0.00064000351 
   67000    1.6781905 -0.0038381385    2.1472907    4.6576871 0.0011939329 
   67200    1.6037967 -0.0047602021    2.2600592     4.658078 -0.0024282492 
   67400    1.5557411 -0.0070350122    2.3342786    4.6580267 0.00030802315 
   67600    1.5993338 -0.0065759941    2.2683504    4.6578673 0.0032163336 
   67800    1.6864661 -0.0079584619    2.1382195    4.6568939 0.0015331656 
   68000    1.6203518 -0.0086922394     2.239088    4.6579773 0.00085002984 
   68200    1.6105115  -0.00673597     2.251628    4.6577311 -0.00056789483 
   68400     1.626429 -0.0036613629      2.22469    4.6577149 0.0019764506 
   68600    1.6283269 -0.0033527165    2.2218966    4.6580736 0.0012689232 
   68800    1.6900276 -0.0045892077    2.1303918    4.6577712 0.0017729838 
   69000    1.5990672 -0.010017435    2.2720951     4.657771 0.0014103054 
   69200    1.6723483 -0.0091739948    2.1614245    4.6577323 0.0038624804 
   69400    1.5739929 -0.004364174    2.3045796    4.6583429 -0.0030957519 
   69600    1.6160828 -0.0052444347    2.2421783    4.6581197  0.002306483 
   69800    1.6275382 -0.0037248944    2.2234838    4.6581071 -0.0040826005 
   70000    1.6539741 -0.0046603022    2.1851159    4.6584095 -0.0017620473 
   70200    1.6219296 -0.0040698537    2.2324976    4.6583733 -0.0076091923 
   70400    1.5950209 -0.0056156702    2.2747892    4.6588048 -0.0013789595 
   70600     1.605889 -0.0060177384    2.2592503    4.6591463 -0.0013688735 
   70800    1.6921502 -0.0042974961    2.1272963    4.6581475 0.0013618072 
   71000    1.6297469 -0.0056218273    2.2231383    4.6591736 0.0016609246 
   71200    1.6688549 -0.0075757337    2.1663566    4.6590289 0.0028444161 
   71400    1.6502279 -0.0050943346    2.1920408    4.6592879 0.0015939242 
   71600    1.6605455 -0.0022258357    2.1739897    4.6595629 9.374092e-05 
   71800    1.6573346 -0.0026244345     2.179675    4.6600391 -5.2431126e-05 
   72000    1.6457147 -0.0053854957    2.1996667    4.6598611 -3.1251438e-05 
   72200    1.6117247 -0.0073631628    2.2524062    4.6596997 -0.0024934541 
   72400    1.5916858 -0.0070735701    2.2832027    4.6607638 -0.00014135431 
   72600    1.6550045 -0.0082134036    2.1882158       4.6595 0.0010839848 
   72800    1.6257621 -0.0063310567    2.2309584    4.6603146 -0.00018412825 
   73000     1.650166 -0.0048357628     2.192998    4.6604109 -0.00080685905 
   73200    1.6699361 -0.0051533925    2.1639157    4.6606303 0.0021188093 
   73400    1.6071729 -0.0031202959    2.2558657    4.6605825 -0.00096380985 
   73600    1.6728118 -0.0027780946    2.1578468     4.661245 0.0024945722 
   73800    1.6125761 -0.0079441659    2.2526299    4.6606179 -0.0038884775 
   74000    1.6582945 -0.0056856987    2.1824333    4.6611743 0.0040360873 
   74200    1.6373304 -0.0048172951    2.2126296    4.6608308 -0.0011136178 
   74400    1.6318339 -0.0035009939    2.2199368    4.6612197 0.00020038873 
   74600    1.6149204 -0.0022410334    2.2440684    4.6612718 -0.0017251738 
   74800     1.620637 -0.0064206788    2.2398834    4.6614716 -0.00054711636 
   75000    1.6174318 -0.0078043191    2.2462206    4.6616232 0.0054349521 
   75200    1.6339562 -0.0050217541    2.2184073     4.661349 0.0015197688 
   75400    1.6133332 -0.0061088574    2.2509652    4.6619228 -0.0042499174 
   75600    1.5928512 -0.0053238424    2.2809689    4.6620257 0.00065116981 
   75800    1.6757534 -0.0061398537     2.156752    4.6611955 0.0053252451 
   76000    1.5827484 -0.0027563441    2.2929848    4.6614734 -0.0034837105 
   76200    1.6787864 -0.005675276    2.1517744    4.6612263 -0.0051571687 
   76400    1.5907606 -0.0023871883    2.2809793    4.6618408 0.0017582526 
   76600    1.6171962 -0.0027279577     2.241833    4.6619589 0.00078376054 
   76800    1.6151561 -0.0047514534    2.2469762    4.6620223 -0.0049934321 
   77000    1.5960824 -0.0071144949    2.2776741    4.6617812 0.0042424959 
   77200    1.6423291 -0.0069818695    2.2082806    4.6618063 0.0010768468 
   77400    1.6312562 -0.0032443144    2.2215811    4.6622551 -0.00024238514 
   77600    1.5816192 -0.0041328619    2.2967921    4.6622123 0.0053058996 
   77800    1.6684261 -0.0034495162    2.1658409     4.661997  0.001044811 
   78000      1.63754 -0.0036444725    2.2125814    4.6622695 -0.0020463518 
   78200    1.6429842 -0.0057241854    2.2067624    4.6625273  0.004336276 
   78400    1.5746806 -0.0081733861    2.3119484    4.6629329 -9.3627752e-05 
   78600    1.6433756 -0.0068998059    2.2076451    4.6628207 0.0031259293 
   78800    1.6862043 -0.0032834319    2.1411826    4.6641397 0.0010050472 
   79000    1.6067221 -0.010970284    2.2681447    4.6643362 -0.00072054939 
   79200    1.6641139 -0.0032504542    2.1742332    4.6641279 0.0012945957 
   79400    1.6487163 -0.0086422045     2.203186    4.6646206 0.0035811913 
   79600    1.6673542 -0.0064035132    2.1726674    4.6642636 -0.00049813533 
   79800    1.6132891 -0.0049848477     2.253359    4.6653745 0.0011106992 
   80000    1.6433931 -0.0090356628    2.2111261     4.664192 0.0059858281 
   80200    1.6546515 -0.0062190722    2.1921524    4.6649021 0.0012946301 
   80400     1.610001 -0.0078916067    2.2613115    4.6654941 -0.00036561078 
   80600    1.6325444 -0.0089457997    2.2280688    4.6649714 0.0018612989 
   80800    1.6604633 -0.009061799    2.1860299     4.664644 0.0020513297 
   81000      1.63405 -0.0061111289    2.2231646    4.6651574 0.0020397753 
   81200    1.6511709 -0.0062353994    2.1974984    4.6650172 0.0021713103 
   81400    1.6338915 -0.0051043911     2.222745    4.6655072 -0.0016314708 
   81600    1.6578436 -0.0044671611    2.1864157    4.6656997 0.0073864873 
   81800    1.5861067 -0.0047280937    2.2946393    4.6661874 -0.0015102085 
   82000    1.6408634 -0.0049019893    2.2134867    4.6668964 -0.0048649558 
   82200    1.6719903 -0.0030501882    2.1654372    4.6673325 0.0056888519 
   82400    1.6306228 -0.0030034604    2.2275295    4.6674955 0.0066790545 
   82600    1.6236248 -0.0031410087    2.2385186    4.6678627 0.00098447147 
   82800    1.6516502 -0.0040828966    2.1977025    4.6680919 -0.003589075 
   83000    1.6501457 -0.0038359668    2.2002555    4.6686379 -0.0038247698 
   83200    1.6759147 -0.0072991398      2.16505    4.6685758 0.0017158828 
   83400    1.6437641 -0.0058209503    2.2119366    4.6687732 0.0016806562 
   83600     1.661378 -0.0075814293    2.1874547    4.6689196 0.0010347652 
   83800    1.6743188 -0.0038530987     2.164563    4.6691439 0.0032388106 
   84000    1.5961772 -0.0033052837    2.2814371    4.6694955 -0.0048687882 
   84200    1.5504975 -0.0035613314    2.3505447    4.6699106 -0.00093679391 
   84400    1.5960292 -0.0028908658    2.2816059     4.669857 0.0057905603 
   84600    1.6454485 -0.0036299658    2.2076339     4.669185  0.001078759 
   84800    1.6671237 -0.0016670584    2.1732279    4.6692152 -0.0012099782 
   85000     1.664139 -0.0034525999    2.1794006    4.6691308 0.00026309541 
   85200    1.6220347 -0.0021584801    2.2419249    4.6698693 -0.0021001324 
   85400    1.6739005 -0.0046782482    2.1662696    4.6693987 0.0019594395 
   85600    1.6759414 -0.0050429528    2.1640613    4.6698833 0.0096368409 
   85800    1.6104373 -0.0044050656    2.2624263     4.670749 0.00047871068 
   86000    1.6274013 -0.0058247342    2.2380007     4.670319 -0.0060077058 
   86200    1.6487855 -0.0039473332    2.2042377    4.6704709  0.002176982 
   86400    1.6320681 -0.0051933375    2.2313057    4.6712471 -0.00049069036 
   86600    1.6389381 -0.0049561291    2.2207035    4.6711747  0.006179097 
   86800    1.6673585 -0.0084776835    2.1819213    4.6714498 0.0029392733 
   87000    1.5960906 -0.0053088158    2.2860025    4.6719276 -0.0053341514 
   87200     1.634118 -0.0041995134    2.2284878    4.6724941  0.004463258 
   87400    1.6214873 -0.0054903613    2.2484599    4.6722523 -0.0007928491 
   87600    1.7191053 -0.005751378    2.1021234    4.6719044 0.0030009829 
   87800    1.6430542 -0.0059215403    2.2171734    4.6728458 0.0044320079 
   88000    1.6260189 -0.0046376359    2.2421649    4.6735993 -0.0033559153 
   88200    1.6075484 -0.0061896426    2.2718039    4.6740141 -0.00061748722 
   88400    1.6296904 -0.0097523244     2.241959    4.6737792 0.0018365517 
   88600     1.603977 -0.0079467004    2.2804137    4.6755162 0.0020907803 
   88800    1.6484985 -0.0070930816    2.2126035    4.6752609 -0.0035451928 
   89000    1.6566589 -0.0090537657    2.2025453    4.6754679   0.00167323 
   89200    1.5705252 -0.010380612     2.333486    4.6760377 0.00057039425 
   89400    1.6451392 -0.0075964745    2.2196017    4.6767229 -0.00023165186 
   89600    1.6411264 -0.005692052    2.2238935    4.6769072   0.00139194 
   89800    1.6507528 -0.0070237448    2.2109778     4.677082 0.00074454195 
   90000    1.6441942 -0.0037795207     2.218366    4.6778883 0.0027993306 
   90200    1.6072824 -0.0044402135    2.2740773    4.6776384 -0.0028125104 
   90400    1.6894966 -0.0039392051    2.1510994    4.6783333 0.0045849391 
   90600     1.639537 -0.0059541988    2.2281828    4.6785531 -0.003461037 
   90800    1.6078289 -0.0054402424    2.2755523     4.678932 -0.0030946459 
   91000    1.6562839 -0.005886025     2.203009    4.6785374  0.001639326 
   91200    1.6231231 -0.0064617964     2.253721    4.6789928 -0.0030811143 
   91400    1.6149091 -0.0078700866    2.2670594    4.6786168 -0.0021305397 
   91600    1.6134277 -0.0039403638    2.2671673     4.680435 -0.0035002166 
   91800    1.6633564 0.0080581737    2.1808477    4.6809161 -0.00028774235 
   92000    1.6544394 -0.0030401627    2.2044383    4.6800492 -0.0038447667 
   92200    1.6124984 -0.0044319323    2.2689386    4.6803224 0.0034392457 
   92400    1.6898395 -0.0065173811    2.1546165    4.6797859 0.0073108338 
   92600     1.674681 -0.0058842851    2.1771134    4.6802057 0.0018594229 
   92800     1.618902 -0.0092427907    2.2640908    4.6802575 -0.0014115965 
   93000    1.6664051 -0.0064295485    2.1904051    4.6805534 0.0040040103 
   93200     1.649337 -0.0050001065    2.2155564     4.681563 -0.00076996153 
   93400    1.6077068 -0.0097682966    2.2824492     4.681318 -0.0060529852 
   93600    1.6004156 -0.0050129369    2.2895453    4.6822459 0.0040013028 
   93800    1.6026213 -0.010632946    2.2919081    4.6822933 -0.0027333285 
   94000    1.6965501 -0.0076257873    2.1472283    4.6813431 -0.0010237967 
   94200    1.6007191 -0.0010010268    2.2854452    4.6826124 -0.0027887543 
   94400    1.6791446 -0.0053364451    2.1715342    4.6818616 0.0066338994 
   94600    1.6003471 -0.0063542788    2.2914253    4.6826819 -0.0019702667 
   94800    1.6738881 -0.0068438773    2.1811959    4.6821407 0.0044247413 
   95000     1.710228 -0.0075781305    2.1275199    4.6821742 0.00032392925 
   95200    1.6598915 -0.0061569707    2.2023873    4.6830497 0.0029284288 
   95400    1.6251185 -0.0070346291    2.2550588    4.6827472 -0.0022987524 
   95600    1.6555487 -0.00098733532    2.2039382    4.6832639 -0.00097010644 
   95800    1.6333141 -0.005514371    2.2414731    4.6829602 -0.0050815643 
   96000    1.6379996 -0.010116535    2.2395272    4.6834318 0.0018951277 
   96200    1.6481001 -0.007903549    2.2224949    4.6837449 0.00052391304 
   96400    1.6480142 -0.0063469143    2.2216406    4.6843186 0.00012189055 
   96600    1.6089875 -0.0043534654    2.2782275    4.6844299 -0.0052295287 
   96800    1.6802939 -0.0061754394    2.1744564    4.6856668 0.0090771054 
   97000    1.6217479 -0.0066671537    2.2616241    4.6846302 -0.0023345146 
   97200    1.6140141 -0.0058632228    2.2727584    4.6849818 -0.00097665357 
   97400    1.5628286 -0.0057414664    2.3493044    4.6849643 0.00054196641 
   97600    1.6141113 -0.0086617839    2.2759198    4.6854902 -0.0014392816 
   97800    1.6577983 -0.0055060881     2.206674    4.6848512 -0.0032445702 
   98000    1.6018659 -0.0053263786    2.2907909    4.6853509 0.00027742078 
   98200    1.6303703 -0.0062678086    2.2496987    4.6860219 0.00064628339 
   98400    1.6324809 -0.0069879905    2.2467975    4.6855628 -0.0021223724 
   98600    1.6615179 -0.0056658333    2.2025381    4.6861282 0.0014967035 
   98800    1.6225212 -0.0015549516    2.2577927    4.6870695 0.0021476811 
   99000     1.650126 -0.0042893474    2.2192248    4.6871243 -0.0036690274 
   99200    1.6404218 -0.0019235571    2.2315116    4.6872383 0.0020854797 
   99400    1.6638485 -0.005055682    2.1994684    4.6871602 0.00073820657 
   99600    1.6579977 -0.0074932685    2.2118888    4.6883776 -0.001790341 
   99800     1.694239 -0.0057218682    2.1553529    4.6879091 -0.0015982188 
  100000    1.6336679 -0.0032533223      2.24453    4.6888082 0.0026432361 
  100200    1.6289764 -0.0053411681    2.2537384    4.6889001 -0.0041869587 
  100400    1.6746846 -0.0057496924    2.1859593    4.6891916 -0.00014264676 
  100600    1.6173446 -0.0045456367    2.2712517    4.6897823 0.00070213975 
  100800    1.6292729 -0.0068999613     2.255251     4.689298 -0.00097542277 
  101000    1.6209146 -0.0079624828    2.2693992    4.6898615 -0.0043307669 
  101200    1.5687015 -0.0062130735    2.3462334    4.6902204 0.0033842985 
  101400    1.6435766 -0.0057899803    2.2333769    4.6899635 0.0033134269 
  101600    1.6196811 -0.0055027381    2.2683555    4.6894295 0.00072739175 
  101800     1.635738 -0.0050733054    2.2436197    4.6891793 -0.0014035188 
  102000    1.6476221 -0.0071585285     2.228547    4.6898259 0.0029996639 
  102200    1.6107348 -0.0041063461    2.2809399    4.6900071 -0.0016009249 
  102400    1.6599907 -0.0053420096    2.2079833    4.6896092 0.0013708958 
  102600    1.6905996 -0.0062712174    2.1628384    4.6893928 0.0010796493 
  102800    1.6318098 -0.0094672317    2.2550953    4.6903759   0.00947505 
  103000    1.6390238 -0.0074994727    2.2440641    4.6921203 -0.0054917973 
  103200    1.6558593 -0.010070235    2.2218175    4.6925256 0.0020785348 
  103400    1.6002772 -0.011070478    2.3066437    4.6930794 -0.00048387088 
  103600    1.5976853 -0.010323086    2.3088527    4.6921527 0.00018234842 
  103800    1.6388322 -0.0091021295    2.2461643    4.6923308 0.0044803258 
  104000    1.6666168 -0.0049333754    2.2002948    4.6922564 -0.0035710581 
  104200    1.6542901 -0.0096471726    2.2238112    4.6925914 -0.003821436 
  104400    1.6639103 -0.010282799    2.2105298    4.6930872 0.0071106393 
  104600    1.6594349 -0.010862361    2.2175019    4.6927748 0.0023691173 
  104800    1.6514253 -0.0086623741    2.2273248    4.6927977 -0.00074445234 
  105000     1.632474 -0.0059116997    2.2532472    4.6930784 -2.8782269e-05 
  105200     1.665849 -0.0040945052    2.2016276    4.6932777 0.0047382821 
  105400    1.6492196 -0.0047923919    2.2271698    4.6932082 7.3776327e-05 
  105600     1.705227 -0.0045045552    2.1428611    4.6930967 -0.0012355125 
  105800     1.626032 -0.0032200791    2.2606786    4.6935501 0.0011688021 
  106000    1.6019888 -0.0042845919    2.2971591     4.692945 0.0016199317 
  106200    1.6155919 -0.0074508385    2.2797189    4.6927185 -0.00080667513 
  106400    1.6232082 -0.0074020146    2.2689544    4.6934134 0.0032119758 
  106600    1.6567146 -0.0061156656    2.2175789    4.6935229   0.00234618 
  106800    1.6476788 -0.0042028372    2.2294362    4.6937558 0.0061625999 
  107000    1.6591248 -0.0053647142    2.2135481    4.6938541 -0.0005246857 
  107200    1.6711897 -0.0082512704    2.1981799    4.6936746 0.00063162034 
  107400     1.672533 -0.011076746    2.1987828    4.6934646 0.0041470994 
  107600    1.6263728 -0.0091950468    2.2664352    4.6938423 -0.00059840277 
  107800     1.613835 -0.0073847048    2.2837479    4.6941814 0.0050294654 
  108000    1.6485394 -0.0052519797     2.229649    4.6942088 -0.00060830313 
  108200    1.6927426 -0.0042429271    2.1623681    4.6941613 7.2831297e-05 
  108400    1.6107117 -0.0058870619    2.2875094    4.6947613 -0.0010788076 
  108600    1.6638493 -0.0055234472    2.2078337     4.695059 0.0045458614 
  108800    1.7064352 -0.0087773447    2.1474833    4.6952562 0.0020018803 
  109000    1.6913453 -0.0082264393    2.1699304    4.6956468 0.0038943647 
  109200    1.6361376 -0.0083018574    2.2531538    4.6960835 -0.0057250874 
  109400    1.6362856 -0.010798473    2.2549641     4.695619 0.0011429838 
  109600    1.6721501 -0.009264343    2.1997042    4.6956248 0.0014153493 
  109800    1.6620654 -0.0041917863    2.2106822    4.6965666 0.00029210016 
  110000    1.6566453 -0.0064026581    2.2205089    4.6960621 0.0027824356 
  110200    1.6045866 -0.0056693144    2.2979001    4.6961933 0.0015515127 
  110400    1.6068214 -0.0031511529    2.2922919    4.6964513 -0.00014381863 
  110600    1.6506138 -0.0056575905    2.2288912    4.6961532 -0.0016598816 
  110800    1.6512746 -0.0031434692    2.2256628    4.6964289 -0.0012754136 
  111000     1.607404 -0.0046471894    2.2931939    4.6967301 -0.0021286111 
  111200    1.6390213 -0.0034576961     2.244484    4.6965782 0.0030942854 
  111400    1.6571473 -0.0026733337    2.2169133    4.6969479 0.0028229898 
  111600     1.640134 -0.0039381833    2.2438311    4.6971117 -0.0070818258 
  111800    1.6667798 -0.0046969716    2.2047199    4.6971621 0.0028293635 
  112000     1.634617 -0.0028522574      2.25138    4.6974813 0.0039910255 
  112200    1.6949875  -0.00576841    2.1639216    4.6975527 -0.0041292074 
  112400    1.6520171 -0.0026133498    2.2255199    4.6979286 -0.001145937 
  112600    1.6562873 -0.0058065148    2.2221432    4.6977562 0.0044178227 
  112800      1.58623 -0.0050868914    2.3271714    4.6985454 -0.0020299067 
  113000    1.6576114 -0.0065973862    2.2213325    4.6981384 0.0093738852 
  113200    1.6364223 -0.0046752241    2.2513165    4.6982994 -0.0026776409 
  113400    1.6083296 -0.0033459439    2.2926749    4.6988991 -0.00065630053 
  113600    1.6208667 -0.0024926998    2.2731436    4.6990038 0.0021632226 
  113800    1.6220964 -0.0044029756    2.2732722    4.6990646 -8.3971015e-06 
  114000    1.6627377 0.0024007165    2.2056766    4.6991607 -0.0035011208 
  114200    1.6381445 -0.00067788241    2.2463953    4.6999556 -0.0008645101 
  114400     1.683155 -0.0029040585    2.1806332    4.6994013 0.00072679727 
  114600    1.6063467 -0.0063389929    2.2996561    4.6999165 -0.0013466777 
  114800    1.5916917 -0.0072761953    2.3228568    4.7002242 -0.00048359738 
  115000    1.6604698 -0.0071208584    2.2194147    4.6999796 -0.00029736634 
  115200    1.6704527 -0.0089686719    2.2072256    4.7008988 0.0007996155 
  115400    1.6478876 -0.0078360768    2.2401612    4.7011603 -0.0029429022 
  115600    1.6561585 -0.0057812615    2.2255984    4.7010437 0.00079517062 
  115800    1.6132442 -0.0024304886    2.2883045    4.7028072 0.0062104392 
  116000    1.6950455 -0.007260498    2.1690248    4.7012507 -3.1516271e-05 
  116200    1.6436628 -0.0090784003    2.2493729    4.7028003 -0.0028879415 
  116400     1.600746 -0.0066855499    2.3108525    4.7023755 0.0016103501 
  116600     1.640458 -0.0097114966    2.2540511    4.7020439 0.0054552111 
  116800    1.7007326 -0.0071276937    2.1610896    4.7019686 0.0052854388 
  117000    1.6478713 -0.005205505    2.2387045    4.7023098 -0.00066293686 
  117200    1.6480568 -0.0029526405    2.2362794    4.7024154 0.0081405105 
  117400    1.6638614 -0.0042337227    2.2142726    4.7028057 -0.0013207232 
  117600    1.7214168 -0.004253624    2.1281516    4.7028932 0.0069576096 
  117800    1.6851736 -0.0038239572    2.1821223    4.7029948 0.0031441494 
  118000    1.6770447 -0.0035074544    2.1939424    4.7029529 -0.00033751539 
  118200    1.5898996 -0.0038871329    2.3257785      4.70385 0.00078820539 
  118400     1.651148 -0.0042822164     2.234519    4.7039567 0.0066123167 
  118600    1.6534549 -0.0048188461     2.231433    4.7037902 -0.0020022784 
  118800    1.6945837 -0.0057177027    2.1710101    4.7040869 0.0002940154 
  119000    1.6514588 -0.0054948902    2.2359693    4.7046599 0.00059074094 
  119200    1.6835027 -0.0081884386    2.1912299    4.7052345 9.4153927e-05 
  119400    1.6165815 -0.0075406975    2.2911707    4.7055631 9.0055478e-05 
  119600    1.6753087 -0.0053527881    2.2005108     4.705075 0.0057675016 
  119800    1.6332941 -0.0029077861    2.2613631    4.7054269 -0.0023222745 
  120000    1.6012185 -0.0022153272     2.308949    4.7056502 -0.0033660569 
  120200    1.6837242 -0.0027413604    2.1854311    4.7052146 -0.00064030862 
  120400    1.6201697 -0.0037052972    2.2823035     4.705907 0.0015384246 
  120600    1.6394329 -0.0049397503    2.2545428    4.7057717 -9.4190107e-05 
  120800    1.6871936 -0.0022030494    2.1807976    4.7063172 -0.00058285772 
  121000    1.6728548 -0.004313455    2.2041741    4.7061013  0.003102472 
  121200    1.6119773 -0.0081288222    2.2995544    4.7064607 0.00017192632 
  121400    1.6128179 -0.0076002299    2.2975562    4.7062504 -0.0011168009 
  121600    1.6955112 -0.0055368527    2.1713826    4.7060298 0.0060636756 
  121800    1.6154606 -0.0064511725    2.2935773    4.7073798 -0.0046953026 
  122000    1.6169338 -0.0087333481    2.2928291    4.7065566 -0.001982892 
  122200    1.6547159 -0.004807487     2.232557    4.7068148 0.0010858974 
  122400    1.6515274 -0.0014738048    2.2350219    4.7078365 0.00038728235 
  122600    1.6162288 -0.0023310209    2.2882242    4.7072978 -0.00044113778 
  122800    1.6627346 -0.0068703476    2.2228956     4.707104  0.006360426 
  123000    1.7065042 -0.0055148319    2.1570011    4.7081398 0.0011571098 
  123200     1.627014 -0.0052881014    2.2757817    4.7080564 -0.0031767291 
  123400    1.6696785 -0.006443972    2.2132345    4.7082724 0.0043486934 
  123600    1.6632659 -0.0058051086    2.2234973    4.7095669 -0.0013773356 
  123800    1.6988233 -0.0062793767    2.1691467    4.7080135 -0.0014459556 
  124000    1.6408089 -0.006639422    2.2582179    4.7098085 0.0056279299 
  124200    1.6149634 -0.0044759729    2.2956964    4.7107292 -0.0036091436 
  124400    1.6805899 -0.0064208505    2.1985658    4.7099742 0.0052098733 
  124600    1.6579887 -0.0040615978    2.2307286    4.7106354 0.00081897732 
  124800    1.6858029 -0.0037490904    2.1887271    4.7106172 0.00010429989 
  125000    1.6808866 -0.0038285786    2.1971024    4.7115476 -0.001057004 
  125200    1.6099305 -0.0037981192    2.3038042    4.7119748 -0.00040685196 
  125400    1.6086709 -0.0065252144    2.3086977     4.712254 0.0038222738 
  125600    1.5924991  -0.01206907    2.3384294    4.7122135 -0.0012821603 
  125800    1.7014014 -0.010324745    2.1746803    4.7133642 0.00019042122 
  126000    1.6436633 -0.012361288    2.2638006    4.7139457 -0.00085314139 
  126200    1.6660344 -0.0084159761    2.2272473    4.7148538 0.0060843259 
  126400    1.6287107 -0.0076718839    2.2827317    4.7151646 -0.0029601975 
  126600    1.6382869 -0.0077570707    2.2687624    4.7154569 -0.0051950466 
  126800    1.6805442 -0.0088074467     2.206398    4.7153513 0.0034853692 
  127000    1.6936382 -0.0090333447    2.1874182    4.7157628 -0.0018312879 
  127200    1.6381758 -0.0073165625    2.2693205    4.7162892 0.00079028756 
  127400    1.6098856 -0.0048018617    2.3095024    4.7166018 0.0025078796 
  127600    1.6885135 -0.0070000229    2.1938505    4.7165506 0.0016403053 
  127800    1.6349143 -0.0048451246    2.2727565    4.7173102 -1.4491836e-05 
  128000    1.6811212 -0.0046074268    2.2034502    4.7174681 0.0044370232 
  128200    1.6407272 -0.005996639    2.2644009    4.7165119 -0.0039106769 
  128400     1.682382 -0.0061228797    2.2026643    4.7170556 -0.002348904 
  128600    1.6473515 -0.0078048585    2.2572209    4.7174481 0.0011559939 
  128800    1.6620142 -0.0083989526     2.236299    4.7178994 0.0067081322 
  129000    1.6307035 -0.011182171    2.2857052    4.7176133 -0.00088902623 
  129200     1.642323 -0.011175946    2.2687793    4.7181018  0.003525774 
  129400    1.6286213 -0.006505461    2.2845311    4.7179964 0.0055269835 
  129600    1.6891672 -0.0049677531    2.1925149    4.7182267 0.0036893838 
  129800     1.615545 -0.0025081587    2.3013819    4.7192539 -0.0020667766 
  130000    1.6269033 -0.0026368675    2.2846685    4.7194286 0.0011649479 
  130200    1.6883825 -0.0036892393     2.193912    4.7197268  0.005220965 
  130400     1.599896 -0.0022528339    2.3260558    4.7207381 0.0038593636 
  130600    1.6308289 -0.0049235866    2.2815915    4.7199461 -0.0040008782 
  130800    1.6534356 -0.0027160433    2.2455392    4.7199704 -0.002091553 
  131000    1.5946206 -0.0016604499    2.3333892    4.7207603 -9.87296e-05 
  131200     1.654652 -0.0044556817    2.2460703    4.7205841 0.0020873505 
  131400    1.7037315 -0.0045894298    2.1725742    4.7204844 0.0055637371 
  131600    1.6906057 -0.0044238902    2.1920007    4.7204115 0.0012042407 
  131800    1.7349101 -0.0042556565    2.1256377    4.7205928 0.0030017452 
  132000    1.6518283 -0.0071542634    2.2533053    4.7208902 -0.0024444734 
  132200      1.63379 -0.0068023685    2.2805243    4.7214365 -0.0017342654 
  132400    1.6179828 -0.0035277216    2.3011203     4.721625 -0.0023762778 
  132600    1.5937457 -0.0034198425    2.3379363    4.7222373 0.0040517523 
  132800    1.6192379 -0.0055327978    2.3020824    4.7224624 -0.0026781834 
  133000    1.6846046 -0.0045202954    2.2032317    4.7225553 0.0060925213 
  133200    1.6367866 -0.0070077135    2.2781393    4.7233356 0.00084736554 
  133400    1.6277093 -0.0055090569    2.2900634    4.7231589 -0.0029489308 
  133600    1.6429978 -0.0032826361    2.2649313    4.7231581 0.0011207928 
  133800    1.6827782 -0.0046817812    2.2067494    4.7231753 0.0067242193 
  134000    1.7100906 -0.0068817477    2.1683907    4.7235356  -0.00449692 
  134200     1.665968 -0.0067367498    2.2344837      4.72367 -0.00046136064 
  134400    1.6627742 -0.0085363094    2.2420306    4.7246325 0.0040545552 
  134600    1.5770767 -0.0073970274    2.3702072    4.7255579 0.00087894265 
  134800    1.6828744 -0.007044155    2.2106887    4.7248964 0.0010970536 
  135000    1.7040281 -0.0074832936    2.1799467    4.7254074 -0.0058490276 
  135200    1.6543538 -0.0046905149    2.2516813    4.7255136 0.0017866061 
  135400    1.6135941 -0.0049768743    2.3142498    4.7267303 -0.00073928499 
  135600    1.6521371 -0.0049065736    2.2556595    4.7259546 -0.00053240388 
  135800    1.6536992 -0.0039438224    2.2529911    4.7265893 -0.0040009598 
  136000    1.6545395 -0.0044204921    2.2520943    4.7264749 -0.00070176831 
  136200    1.6132787 -0.0044391119    2.3152082    4.7277538 0.0015333758 
  136400    1.6110304 -0.0064160778    2.3200598    4.7272602 0.0061145554 
  136600    1.6621976 -0.0084393478    2.2440542    4.7258891 -0.0034776364 
  136800    1.6799352 -0.0094868351     2.218696    4.7260575 -0.0035798746 
  137000    1.6643032    -0.003711    2.2366024    4.7263202 0.0042904833 
  137200    1.6940192 -0.0048676389    2.1935785    4.7266596 -0.0030697472 
  137400    1.5984804 -0.0068911429    2.3392755    4.7271986 0.0012555138 
  137600    1.6625101 -0.0071356693    2.2437773    4.7273841 -0.0041810578 
  137800     1.652557 -0.001016493     2.253543    4.7283573 -0.0015593554 
  138000    1.6173458 -0.0072880337    2.3121101       4.7279 0.0030027999 
  138200    1.6303331 -0.0075336988    2.2922007    4.7272024 0.0021022073 
  138400    1.6362897 -0.0074530222    2.2831143    4.7271208 -0.0048242501 
  138600    1.6656824 -0.011966398    2.2441163     4.727645 0.0020986402 
  138800    1.7068116 -0.012847803    2.1834246    4.7276909 0.0049753766 
  139000    1.6619062 -0.011500765    2.2496012     4.727938 -0.0024344248 
  139200    1.7183303 -0.012672354    2.1663671    4.7280659 0.00083482098 
  139400    1.6330633 -0.0069562346    2.2888866     4.728556 0.0030118009 
  139600    1.6491043 -0.0089153117    2.2662651    4.7280078 0.0041988779 
  139800    1.6696772 -0.0075422891     2.234193    4.7281307 -0.0027624566 
  140000    1.6362689  -0.00629433    2.2831131    4.7282471 0.00016608009 
  140200    1.6765632 -0.0068969941    2.2229698    4.7278693 -0.00019983941 
  140400    1.6683283 -0.0060801757    2.2351888    4.7285677 0.0012626404 
  140600    1.6831516 -0.0071128362    2.2143641    4.7289184 0.0056705778 
  140800    1.6654238 -0.0068835416    2.2410518    4.7292759 0.0036399701 
  141000      1.64913 -0.0047562336    2.2630452    4.7289855 -0.0030219578 
  141200    1.6751005 -0.0072670247    2.2276016    4.7299397 0.00039849534 
  141400    1.6745189 0.0012816419    2.2203088    4.7303243 0.0012937548 
  141600     1.674685 -0.0048506434    2.2263466    4.7304786 0.00026110508 
  141800    1.6972349 -0.0059797637    2.1936603     4.730447 -0.002275411 
  142000    1.6936934 -0.0050433229    2.1983476     4.730765 0.0022277001 
  142200    1.6747488 -0.0071558369    2.2297738    4.7316961 0.0018331593 
  142400    1.6555137 -0.010375176    2.2620006    4.7318859 0.0035695499 
  142600     1.703783 -0.0065865616    2.1861053    4.7320954 0.0037093199 
  142800    1.6398447 -0.0039759817    2.2791579    4.7319674 -0.001340441 
  143000    1.6524229 -0.0018019725    2.2583311    4.7321591 0.0011173989 
  143200    1.6926794 -0.0033934813    2.1998873    4.7324353 0.0049519983 
  143400    1.6292332 -0.001996331    2.2941889    4.7330802 -0.0039367769 
  143600    1.6046375 -0.0036877835    2.3326409    4.7329919 0.0062833656 
  143800    1.6837843 -0.0048167724    2.2151139    4.7329122 0.0009478963 
  144000    1.6740452 -0.0064715047    2.2314402    4.7329928 0.0026858744 
  144200    1.6755908 -0.0056094402    2.2300831    4.7348134 0.0004557574 
  144400    1.6703516 -0.0073520633    2.2382996     4.733438 0.0050761742 
  144600    1.5943662 -0.0046638941    2.3509555     4.734942 -0.0036828088 
  144800    1.7254759 -0.0046279239    2.1526753     4.733124 0.0054633017 
  145000    1.7155566 -0.0066760011    2.1707577    4.7342974 -0.0013458857 
  145200    1.6549118 -0.006763629    2.2614508    4.7340459 0.0030967754 
  145400    1.6469875 -0.0079525703    2.2747304    4.7342645 -0.0042350134 
  145600    1.6323402 -0.0058016526    2.2947113    4.7344521 -0.0050497217 
  145800    1.6130579 -0.0047273905    2.3230574    4.7349841 -2.6317733e-05 
  146000    1.6529007 -0.0056649673    2.2642216    4.7349023 0.0031061659 
  146200    1.6478947 -0.0053988611    2.2714092    4.7348563  0.002823762 
  146400    1.6403564 -0.0065005686    2.2844216    4.7354732 0.0015749372 
  146600    1.6440887 -0.0075564953    2.2799047     4.735492 0.00012160112 
  146800    1.6414132 0.0033829247    2.2735679    4.7360862 -0.0025951232 
  147000    1.6553852 -0.005011146    2.2609095    4.7359663 -0.0022050973 
  147200    1.6707292 -0.0032947138    2.2365025    4.7362639 0.0010700007 
  147400    1.6368539 -0.0031825326    2.2870846    4.7362068 -0.0015867624 
  147600    1.6085562 -0.00071805478    2.3284817    4.7376733 -0.001193357 
  147800    1.6496141 -0.0050342944    2.2706661    4.7370537 0.00037058621 
  148000    1.6739392 -0.0059631816    2.2351465    4.7370486 0.00022082963 
  148200    1.7448242 -0.0065463048    2.1297197    4.7372373 0.0011269598 
  148400    1.6927327 -0.0043923636    2.2058763    4.7375053 -0.00036280397 
  148600    1.6211356 -0.0057337868    2.3150831    4.7381052 -0.00073662456 
  148800    1.6593726 -0.004232314    2.2556372    4.7374467 -0.0038231797 
  149000    1.6676965 -0.0041517611     2.243332    4.7376928  0.007471482 
  149200    1.6353292 -0.0087022251    2.2969906    4.7383089 0.0022973059 
  149400    1.6732124 -0.0065299657    2.2376395     4.737886 0.0035843125 
  149600    1.6806256 -0.0066305701     2.226581    4.7378332 -0.0015068656 
  149800    1.6330916 -0.0044877102    2.2962046     4.738385 -0.00090407658 
  150000     1.653042 -0.0049662033    2.2676669    4.7392581 -0.00073824057 
  150200    1.6886965 -0.0091267159    2.2180721    4.7389198 0.0014823956 
  150400    1.6472429 -0.0099647723    2.2814048    4.7393095 -0.0027751497 
  150600    1.6545834 -0.007697318    2.2685701    4.7397395 0.0043959496 
  150800    1.6609586 -0.0041068615    2.2549745    4.7392856 0.0005684272 
  151000    1.6379424 -0.0056342317      2.29123    4.7395313 0.0013770934 
  151200     1.648332 -0.0058138221     2.276125    4.7398121 0.0042543567 
  151400    1.6539331 -0.0062262751    2.2677264    4.7393926 0.0035072836 
  151600    1.6888552 -0.0069818834    2.2162207     4.739451 0.00086332314 
  151800     1.685812 -0.0063885726    2.2216731    4.7409375 0.0037851082 
  152000      1.68281 -0.0049139248    2.2249748    4.7412163 -0.0023950009 
  152200    1.7289411 -0.003411943    2.1546053    4.7414615 0.0014033924 
  152400    1.6454936 -0.0018986516    2.2780858    4.7414357 -0.0028395136 
  152600    1.6879157 -0.004678786    2.2172258    4.7413517 0.0066923958 
  152800     1.593297 -0.0096231176    2.3644312    4.7418566 0.0010562331 
  153000    1.6962184 -0.006564826    2.2071237    4.7418023 0.00075890093 
  153200     1.612005 -0.0086352831    2.3359034    4.7423448 -0.0011406096 
  153400    1.6315081 -0.0080701215    2.3064749    4.7427006 -0.0018777727 
  153600    1.6492481 -0.0054374148    2.2777519     4.743188 0.0016925012 
  153800     1.721028 -0.0040713335    2.1687159    4.7430574 0.0058766389 
  154000    1.6959686 -0.0043602387    2.2071709    4.7436801 -0.0040850415 
  154200    1.6466932 -0.002261494    2.2793341    4.7441184 -0.0022541538 
  154400    1.6444148 -0.0017855326    2.2833693    4.7452162 -0.001408514 
  154600    1.6789404 -0.0058626663    2.2343056     4.743801 0.0064640189 
  154800      1.65512 -0.005179529    2.2698195    4.7443107 -0.0016365932 
  155000    1.6284679 0.0006037985    2.3049871    4.7453319 0.0036555091 
  155200    1.6530621 -0.0048516322    2.2728334    4.7445694 -0.0025727799 
  155400    1.6721814 -0.0047739602    2.2441417    4.7445995 0.0029204828 
  155600    1.6958031 -0.0082361112    2.2123281    4.7447134 -0.0015531117 
  155800    1.6810948 -0.0049190776    2.2312293    4.7448959 0.00063210529 
  156000    1.6460849 -0.0025893355    2.2820716    4.7456168 -0.0041744044 
  156200    1.6845688 -0.0062824499    2.2281646    4.7456726 0.0012667696 
  156400    1.6634062 -0.0066062774    2.2604919    4.7459706 -0.00060118419 
  156600    1.6481374 -0.0066034823    2.2842818    4.7468878 0.0025705911 
  156800    1.6621293 -0.0058583742      2.26351    4.7478235 0.0033319087 
  157000    1.6128519 -0.005020454    2.3361789    4.7475039 0.00031995205 
  157200    1.7024442 -0.0060331623    2.2027734    4.7473113 0.0053026844 
  157400    1.7178728 -0.005829959    2.1793222     4.747178 -0.0014847414 
  157600     1.708207 -0.0045752898    2.1917772    4.7464065 0.0030320282 
  157800    1.6793811 -0.002503314    2.2341969    4.7477119 0.0036489097 
  158000    1.6547352 -0.0049760206    2.2743778     4.748496 0.00074073243 
  158200    1.6400268 -0.0046815257    2.2961418    4.7485185 -0.002754228 
  158400    1.6526507 -0.0039589484    2.2764938    4.7485061 0.0010114316 
  158600    1.6487774 -0.0027813825    2.2811728    4.7485597 0.00012844348 
  158800    1.6371323 -0.0045829338    2.3013114    4.7494503 0.0029388904 
  159000    1.6758365 -0.0063912777    2.2447377    4.7490542 -0.0058434312 
  159200    1.7046913 -0.0074951309    2.2023115    4.7487539 -0.0005858534 
  159400    1.6563993 -0.0073383225    2.2748834    4.7491323  0.006433363 
  159600    1.6046629 -0.0098772659    2.3558751    4.7500746 -9.4565345e-05 
  159800    1.6422133 -0.0073866084    2.2967175    4.7496649 -0.00054148366 
  160000    1.6514693 -0.0017198938    2.2767828    4.7492642 0.0028927161 
  160200    1.6592295 -0.0043729612    2.2683777    4.7498322 -0.0019845152 
  160400    1.6360908 -0.0042848661    2.3029304     4.749807 0.0065792472 
  160600    1.6971888 -0.0038622791     2.211684    4.7505192  0.001919409 
  160800    1.7056282  -0.00506728    2.2004808    4.7507548 0.0024433412 
  161000    1.6646042 -0.0041297262    2.2621143    4.7518644 0.0017753691 
  161200    1.7018196 -0.0048958101    2.2058423    4.7505816 0.0039100313 
  161400    1.6616578 -0.001586314    2.2643039    4.7521831 -0.0010588147 
  161600    1.6574289 -0.0024657241    2.2709398     4.751604 0.0030145958 
  161800    1.6866954 -0.0033794928    2.2282155    4.7518124 -0.00064550126 
  162000    1.6828113 -0.003717224    2.2341144    4.7515544 0.00033667675 
  162200    1.6785537 -0.0063370411    2.2440979    4.7525394 -0.00092034876 
  162400    1.6481245 -0.0075406697    2.2915724    4.7532219 0.0038604138 
  162600    1.6653676 -0.006935806    2.2655495    4.7536372 -0.0012304351 
  162800    1.6977792 -0.0049695521    2.2146665    4.7532789 -0.0025477847 
  163000    1.7229977 -0.002993405    2.1751387    4.7535091 0.0035861508 
  163200    1.7369088  -0.00748747    2.1590215    4.7537392 0.0011976704 
  163400     1.650264 -0.010118185    2.2920006     4.754278 -0.0021939889 
  163600    1.6735475 -0.009590724      2.25796    4.7556477 0.0019022945 
  163800    1.6633603 -0.0072375282    2.2710727    4.7558513 0.0002956434 
  164000    1.6446269 -0.0046708244    2.2966235    4.7559029 0.0004989911 
  164200    1.6073383 -0.0051471837    2.3542257    4.7571635 -0.0024165635 
  164400    1.6357242 -0.0066773738    2.3122363    4.7561712 -0.0019615106 
  164600    1.6293816 -0.0059556369    2.3216657      4.75682 0.0048809461 
  164800    1.7017975 -0.0069284135    2.2136882    4.7563619 -0.002372157 
  165000    1.6452621 -0.0062879236    2.2991078    4.7577217 0.0015806033 
  165200    1.6518804 -0.010197559    2.2929814     4.757601 -0.00074756783 
  165400    1.6415701 -0.0094394832     2.307927    4.7578579 0.00047251435 
  165600    1.6797274   -0.0068877    2.2482637     4.757913 0.0025323502 
  165800    1.6485042 -0.0047882025    2.2930972     4.758068 0.0037552596 
  166000    1.6223647 -0.0061892076    2.3345807    4.7589887 -0.0058214749 
  166200    1.6858241 -0.0033885407    2.2371477    4.7594303 0.0029954419 
  166400    1.6719788 -0.0066285119    2.2613148    4.7596145 0.00022920442 
  166600    1.6415137  -0.00816761    2.3086797     4.759798 0.0021558454 
  166800    1.6840324 -0.0048227252    2.2417844    4.7599484 0.0022666047 
  167000    1.6812685 -0.0028861463    2.2439373     4.759897 -0.0011009226 
  167200    1.6543974 -0.005724231    2.2877513    4.7606151 -0.0011225733 
  167400     1.663437 -0.0050323791    2.2742231    4.7613218 -0.00010768618 
  167600    1.6907227 -0.0042825325    2.2321261    4.7608535 -0.0034541319 
  167800    1.6678536 -0.006264171    2.2689108    4.7613945 -0.0040653568 
  168000    1.6035739 -0.0078444721    2.3682243    4.7628251 -0.0015151068 
  168200    1.6473492 -0.0070701829    2.3025183    4.7634767 0.00042548677 
  168400    1.6585004 0.0012090953    2.2789317    4.7648759 0.0031547893 
  168600    1.6823523 -0.0047712338    2.2478261    4.7635246 -0.0023778131 
  168800    1.7069746 -0.0067046912    2.2124093    4.7630629 0.0042561487 
  169000    1.7325006 -0.005572729    2.1734407    4.7634689 0.0028162709 
  169200     1.682351 -0.0083731485    2.2515639    4.7636584 -0.0030719158 
  169400     1.624762 -0.0040723599    2.3342741    4.7643906 -0.0032596674 
  169600    1.6092429 -0.0054762552    2.3588639    4.7643262 0.0016366589 
  169800    1.6146516 -0.0074596041     2.352875    4.7644571 -0.0028812184 
  170000    1.6073877 -0.0068575058    2.3638435     4.765145 -0.0020878779 
  170200    1.6145714 -0.0091422671    2.3554889    4.7652682 -0.00050074579 
  170400    1.7249466 -0.0062103007    2.1868354    4.7649088 0.0080381597 
  170600    1.6551928 -0.006960886    2.2923373    4.7651561 -0.0025699739 
  170800    1.6582634 -0.0078770627     2.289047    4.7655501 -0.0044500026 
  171000    1.6606764 -0.0084857675    2.2863066     4.765816 0.0065876392 
  171200    1.6634224 -0.0086187907    2.2829272    4.7664176 0.0026503594 
  171400    1.5890027 -0.0079752931    2.3944139    4.7670535 0.00029878565 
  171600    1.6638781 -0.0071650247    2.2809743    4.7666013 -0.0015919234 
  171800    1.7144955 -0.0078300422    2.2056599    4.7664558 -0.0017927428 
  172000     1.649857 -0.0084296882    2.3035922    4.7669483 1.9033675e-05 
  172200    1.6713469 -0.0099557034    2.2732127    4.7672384 -0.0017609799 
  172400    1.7441723 -0.006238242    2.1605768    4.7674257 -0.0041529556 
  172600    1.7154882 -0.0087330306    2.2062746    4.7676548 0.0043690788 
  172800    1.6571447 -0.003221454    2.2894706    4.7689532 0.0021311827 
  173000    1.6108434 -0.0049096985    2.3597132    4.7681398 -0.0019115038 
  173200    1.6506782 -0.002725127     2.297743    4.7680339 0.0042280367 
  173400    1.6568239 -0.0019389424    2.2878899    4.7681744 -0.0021874022 
  173600    1.7035643 -0.0049961345    2.2208357    4.7680886 -0.001358342 
  173800    1.7198317 -0.0075746248    2.1993592    4.7684051  0.007382416 
  174000    1.6331631 -0.0040224194    2.3260124    4.7687653 -0.0011128697 
  174200    1.7015528 -0.0038564419    2.2235863    4.7689654 0.0030329053 
  174400    1.6366356 -0.0026656871    2.3199415    4.7692535 -0.0016075588 
  174600    1.6263102 -0.005782653    2.3399745    4.7707003 -0.0024487544 
  174800     1.732183 -0.006793829    2.1812484    4.7695797 0.0027163025 
  175000    1.6873885 -0.0062721713     2.248764    4.7705067 0.00075841979 
  175200    1.6811826 -0.010287559    2.2622658    4.7706955   0.00319082 
  175400    1.7125959 -0.011034862    2.2161569    4.7709021 -0.0023368899 
  175600    1.6504524 -0.0090510482    2.3074028    4.7710296 0.0022590072 
  175800    1.6381088 -0.0081057958    2.3254477    4.7715268 -0.0038709396 
  176000    1.6692224 -0.010899092    2.2816703    4.7715699 -0.0035975413 
  176200    1.7612369 -0.0089115558    2.1418662    4.7716076 0.0046910807 
  176400    1.6561116 -0.012041888    2.3025906     4.771705 0.0012733595 
  176600    1.6776242  -0.01115373      2.26985    4.7720823 -0.0025417537 
  176800    1.6359719 -0.0098528448    2.3319738    4.7731042 -0.00084818618 
  177000    1.7128772 -0.0073602937    2.2139475    4.7727886 -0.0011280588 
  177200     1.701413 -0.0064212615    2.2302379    4.7728427 0.00016504208 
  177400    1.6595247 -0.0074199208    2.2942931    4.7731429 -0.00099767549 
  177600    1.7178483 -0.0070194054    2.2064866    4.7731163 0.00024863849 
  177800     1.716313 -0.0055634709    2.2082216    4.7740071 0.0037874449 
  178000    1.6860783 -0.0097656206    2.2570902    4.7733764 0.0056734279 
  178200    1.6739444 -0.0055765694    2.2719244    4.7742209 0.00052888747 
  178400    1.6698996 -0.0098758398    2.2826762    4.7746136 0.0046313624 
  178600    1.6201006 -0.014118414    2.3619691    4.7750559 -0.0025124691 
  178800    1.7083632 -0.018789716    2.2329149    4.7735638 -0.0019754533 
  179000     1.587487 -0.016436525    2.4132906    4.7751983 0.0008415798 
  179200    1.7197573 -0.013599692    2.2115575     4.774467 0.0023471241 
  179400    1.6507669 -0.017309231    2.3196494    4.7754892 -0.00020935971 
  179600    1.6336079 -0.0013172598    2.3300659    4.7761903 -0.00039857228 
  179800    1.6934773 -0.0074003021    2.2450705    4.7748072 0.0014098214 
  180000    1.6488569 -0.0095763739    2.3151895    4.7759006 0.0057824205 
  180200    1.7117265 -0.0098795381    2.2211895    4.7757875 0.0027402261 
  180400    1.7020521 -0.005544771     2.231571    4.7760096 -0.00043152703 
  180600    1.6734958 -0.008163285    2.2773564     4.776394 0.00052271738 
  180800    1.7259324 -0.0094409258    2.1995822    4.7759017 0.0055985529 
  181000    1.7098069 -0.0096005129    2.2235731    4.7755743 0.0016294948 
  181200     1.624573 -0.0083342354    2.3502856     4.775857 -6.4324347e-05 
  181400    1.6578001 -0.0091306969    2.3019482    4.7765034 -0.0031602685 
  181600    1.7595696 -0.010670598    2.1506305    4.7761151 0.0010221305 
  181800    1.7298417 -0.0021170413    2.1873736     4.776874 0.0035214124 
  182000    1.6805406 -0.0070003007    2.2663869    4.7771419 0.0033759282 
  182200    1.5987079 -0.0098018684    2.3927129    4.7780661 -0.0048656686 
  182400    1.6957142 -0.0069196194    2.2440456    4.7776142 0.00032597866 
  182600    1.6955561 -0.0067601276    2.2444816    4.7779729 0.0031787608 
  182800     1.625851 -0.0068504246    2.3493534    4.7783234 0.0015590854 
  183000    1.6884663 -0.0037280606    2.2526744    4.7785758 -0.0021133971 
  183200    1.6591826 -0.0022496571    2.2953525    4.7788601 0.0019718659 
  183400    1.6775665 -0.0051373864    2.2711023    4.7792645 -0.0037705254 
  183600    1.6604003 -0.0053891478    2.2969629    4.7791552 -9.0955793e-05 
  183800    1.6928394 -0.004849209    2.2477553    4.7790873 0.0011829863 
  184000    1.6482319 -0.0075951548    2.3185696    4.7803255  0.006771658 
  184200    1.6840644 -0.012040793    2.2693644    4.7803583 -0.0032514702 
  184400    1.7066757 -0.0075006536    2.2312856    4.7806955 0.0028990081 
  184600    1.6513847 -0.011530265    2.3184558        4.781 6.6350204e-05 
  184800    1.6722497 -0.011150826    2.2870222    4.7812054 -0.0029206007 
  185000    1.6591416 -0.0098805105    2.3068349    4.7826502 -0.0014517546 
  185200    1.7075596  -0.01281696    2.2371202     4.782538 0.0047889596 
  185400    1.7053461 -0.013693405    2.2422358    4.7834609 0.00071684945 
  185600    1.7175917 -0.010163992    2.2198348    4.7829355 -1.4357168e-05 
  185800    1.6763304 -0.0056117324    2.2778548    4.7836908 0.0010645491 
  186000    1.6343741 -0.0090709673    2.3443507    4.7838693 -0.00085998569 
  186200    1.6840838 -0.0063633852     2.267111    4.7838114 0.0043179922 
  186400    1.6444926 -0.011423129    2.3315528    4.7838786 0.0013682028 
  186600    1.7220103 -0.0047441144    2.2084193    4.7835597 -0.00093476794 
  186800    1.6693167 -0.012513694    2.2959633    4.7843896 -0.0020313669 
  187000    1.7215294 -0.0076636076    2.2132386    4.7847391 0.0072520727 
  187200    1.6776242 -0.007050077    2.2791076    4.7854436 -0.00012343741 
  187400     1.693462 -0.0061432819    2.2548758    4.7858466 0.00032937792 
  187600    1.6579326 -0.007500281    2.3095564    4.7859405 -0.0023076964 
  187800    1.6606384 -0.0091161311    2.3070977    4.7859197 -0.00060054414 
  188000    1.7085837 -0.0074483299    2.2328576    4.7851783 0.0069867987 
  188200    1.6907361 -0.0034648754    2.2553512    4.7849163 0.0050064882 
  188400    1.6703954 -0.0061588975    2.2896623    4.7860594 -0.0049186567 
  188600    1.6560934 -0.0052977115    2.3115975    4.7874288 0.00038588829 
  188800    1.6304253 -0.0074684476    2.3524037    4.7876088 0.0010958989 
  189000    1.6130791 -0.007764532    2.3799223    4.7888436 -0.0007719761 
  189200    1.6757045 -0.0071655485    2.2847898    4.7881342 -0.0062155291 
  189400    1.6683236 -0.0048535019    2.2937039    4.7883025 0.00095512446 
  189600    1.6925343 -0.0081466945    2.2606843    4.7882617 0.0019707464 
  189800    1.6284198 -0.0059733511     2.355333    4.7890285  0.001297541 
  190000    1.7015693 -0.0083401801     2.247919     4.788839 0.00022762769 
  190200    1.6795213 -0.010809809    2.2842259    4.7896443 -0.00056080848 
  190400    1.7285357 -0.0088070247    2.2080003     4.788854 0.00023404437 
  190600    1.6520327 -0.010265173     2.325024    4.7898041 0.00073994319 
  190800     1.699876 -0.0062181759    2.2495514    4.7900565 0.0019960917 
  191000    1.6723625 -0.005889727    2.2909562    4.7905697 0.0039755743 
  191200    1.6402568 -0.0049855632    2.3388468    4.7912642 -0.0010216596 
  191400    1.6570967 -0.0054891635    2.3137412    4.7908842 -0.0028613592 
[...]
  454000       1.7843 -0.0043124999    2.4231829    5.0920763 -0.0013013165 
  454200    1.8200021 -0.0053393787    2.3711616    5.0925163 -0.0028197104 
  454400    1.8200914 -0.0029821139    2.3685084    5.0923541 0.0020147392 
  454600    1.7695962 -0.0029137922    2.4452598    5.0935229  0.002222009 
  454800    1.7569714 -0.0055466758    2.4666083    5.0933242 0.00048805893 
  455000    1.7998794 -0.0085093025    2.4056454    5.0936828 2.1128684e-06 
  455200    1.7662863 -0.0068108754    2.4547257    5.0941329 0.0023230432 
  455400    1.7735169 -0.0055920757    2.4429809    5.0944396 0.0045500251 
  455600    1.7395477 -0.0042342461    2.4929735     5.094898 0.0035674386 
  455800    1.7893521 -0.003612045    2.4180053     5.095168 0.0007315326 
  456000    1.7688559 -0.0074812706    2.4530359    5.0956225 -0.0023872246 
  456200     1.752372 -0.0037065564    2.4745803    5.0962456 -5.6551033e-05 
  456400    1.7415444 -0.0051240357    2.4932905    5.0973167 0.0023657515 
  456600    1.7610254 -0.0042838573     2.462963    5.0970154 -0.0021402771 
  456800    1.7807425 -0.0048479299    2.4333589    5.0963869 -0.00049305801 
  457000    1.8211784 -0.0038755661    2.3717169    5.0962977 0.0037364773 
  457200    1.7676137 -0.0030573404     2.452324    5.0974733 -0.0023866163 
  457400    1.7520816 0.0033955118    2.4691787     5.097511 0.0014308002 
  457600      1.79441 -0.0038532103    2.4124909    5.0969901 -0.000241538 
  457800    1.7411111 -0.0024714022    2.4916237    5.0976532 -0.0056970166 
  458000    1.8088187 -0.0016023283    2.3887332    5.0970701  2.23298e-05 
  458200    1.7841131 -0.0017320969    2.4266032    5.0977969 0.00087889652 
  458400    1.8500712 -0.0023317272    2.3278599    5.0972713 0.00082346351 
  458600     1.767018 -0.0055936271    2.4562624     5.097983 0.0017025891 
  458800    1.8199253 -0.0054647144    2.3768444    5.0979586 0.0011086048 
  459000    1.7933712 -0.0058304652    2.4167562    5.0977218 6.279109e-05 
  459200    1.7349845 -0.0040654038    2.5035023    5.0987591 -0.0016684858 
  459400    1.7543569 -0.003681231    2.4738851    5.0985496 -0.0016203779 
  459600    1.7593174 -0.0023928306     2.465358    5.0987425 -0.0039030529 
  459800    1.7186286 -0.0039896657    2.5287065    5.0995349 -0.00048523536 
  460000    1.7169536 -0.0024483769    2.5300867     5.099947 -0.00076367887 
  460200    1.8025926 -0.0043671654    2.4035575    5.0998019 0.0044392379 
  460400    1.7568849 -0.0077893884    2.4757856    5.1001292 0.0041210467 
  460600    1.7872608 -0.0075216229    2.4295194    5.0996394 -0.00093648204 
  460800    1.8391588 -0.0034109704    2.3473047     5.099288 0.0054887914 
  461000    1.8049306 -0.0047304013    2.4008718    5.1002557 0.0030692135 
  461200    1.7977862 -0.0072392171    2.4144179    5.1005893  0.002999238 
  461400    1.7943577 -0.0060702165    2.4182025    5.1004063  0.003066334 
  461600    1.8166192 -0.0060088724    2.3858975    5.1015145 0.0013978692 
  461800     1.756199 -0.0043896559    2.4757711    5.1024869 0.0010654019 
  462000    1.8035289 -0.0053524374    2.4054873     5.102149 -0.0031774269 
  462200    1.7680752 -0.0049677665    2.4585018    5.1024322 -0.00037437364 
  462400    1.8015896 -0.0039121324    2.4076191    5.1028157 -0.004245254 
  462600    1.7805545 -0.0037622513    2.4394794    5.1033115 0.00044432524 
  462800    1.7309288 -0.0041843102    2.5127328    5.1017945 0.0020042773 
  463000    1.7660444 -0.0038473698    2.4604308    5.1024389 0.0035467291 
  463200    1.8539674 -0.0038250618    2.3284828    5.1022381 0.0022535622 
  463400    1.8321812 -0.0049160415    2.3630303    5.1030548 0.0016890021 
  463600    1.7375256 -0.0058795838    2.5067826    5.1040322 -0.0019889749 
  463800    1.7513421 -0.0056127291    2.4853368     5.103553 -0.0014964646 
  464000    1.7688827 -0.0050063472      2.45993    5.1050315 -0.00040271162 
  464200    1.8072598 -0.0045861677    2.4012519    5.1042694 -0.00021735885 
  464400    1.7958734 -0.0054971385    2.4196786    5.1047264 -0.00018598046 
  464600    1.8108536 -0.0036042926    2.3952892    5.1046729 0.0040967503 
  464800    1.7973386 -0.0064707505    2.4186806    5.1049498 0.00052728757 
  465000      1.75798 -0.0041061745    2.4754669    5.1051344 -0.00041345966 
  465200    1.7194024 -0.0053968831    2.5357514    5.1063319 -0.005437071 
  465400    1.7637898 -0.0018392829    2.4651186    5.1057571 0.0036382663 
  465600    1.8201793 -0.0012528796    2.3804166    5.1061233 0.00042597533 
  465800    1.7612847 -0.0054618334    2.4722919    5.1055548 -0.0019396309 
  466000    1.8414347 -0.0051787377    2.3521116    5.1057368 -0.00015822281 
  466200    1.7615005 -0.0067124669    2.4736514    5.1059871 -0.00032437114 
  466400    1.7565394 -0.0058918123    2.4809714     5.106695 0.00079269448 
  466600    1.7516698 -0.0033185921    2.4858863    5.1068876 0.0025977566 
  466800    1.8378056 -0.0075683319    2.3609651    5.1067638 0.0069152914 
  467000    1.8244995 -0.0066971739    2.3801868    5.1069216 -0.00021860977 
  467200    1.8182062 -0.005450422    2.3879613    5.1065144 0.0017032465 
  467400    1.7725277 -0.0058709626    2.4573601    5.1070579 4.8007235e-06 
  467600    1.7444613 -0.0047550301    2.4986386    5.1074038 -0.0035163115 
  467800    1.8254203 -0.0069124783    2.3793054    5.1072044 -5.780355e-05 
  468000    1.8449258 -0.0063356668    2.3494573    5.1071558 0.0066421794 
  468200    1.8183711 -0.0053176555    2.3885484    5.1074813 0.00020660166 
  468400    1.8132503 -0.002525061    2.3937329    5.1077865 -0.0035918808 
  468600    1.7427884 -0.0054303955    2.5032323    5.1088157 0.0043346966 
  468800    1.8018904 -0.0079492283    2.4170593    5.1086694 0.0025068359 
  469000    1.7760354 -0.008853038    2.4584641     5.110435 0.00056700675 
  469200     1.799747 -0.0044628422    2.4180815    5.1099669 0.00029005863 
  469400    1.8071059 -0.0050495931    2.4077753    5.1100989 -0.0016011993 
  469600    1.7669075 -0.0038726296    2.4682594    5.1115354 0.0002442833 
  469800    1.8068268 -0.0023814872    2.4063111    5.1108846 0.0056962967 
  470000    1.7349003 -0.0076710585    2.5200994    5.1116244 -0.0016365703 
  470200    1.7903187 -0.0070185406    2.4361045    5.1113088 -0.0048912064 
  470400    1.7550509 -0.006370375    2.4889014    5.1119164 0.00011363572 
  470600    1.8186908 -0.0096261021    2.3968044    5.1119078 0.0072316295 
  470800    1.7859502 -0.0078447787    2.4445846    5.1124179 7.8960435e-05 
  471000    1.7967903 -0.0088133013     2.429186    5.1122913 -6.7583475e-05 
  471200    1.7805737 -0.0065965115    2.4518117    5.1128383 -0.00076488716 
  471400    1.7769767 -0.0052833939    2.4558022     5.112753 -0.0051854627 
  471600    1.8174104 -0.0039477059    2.3946559    5.1135194 0.0021708741 
  471800    1.7856762 -0.0049933877    2.4437181    5.1139924 0.0031020454 
  472000    1.7441533 -0.00081003813    2.5021433     5.114392 -0.0020705657 
  472200    1.7792212 -0.0046864306    2.4536254    5.1145358 0.00078080521 
  472400    1.7290995 -0.004767083    2.5291294    5.1148677 0.0030925452 
  472600    1.7778574 -0.0030736004    2.4544066    5.1148867 -0.00095507479 
  472800    1.7782683 -0.0045659453    2.4554138     5.115017 -0.002286167 
  473000    1.7692673 -0.0051833108    2.4705551    5.1160559 -0.003983947 
  473200    1.7611521 -0.0059121785    2.4835071     5.116121 0.0020197236 
  473400    1.7629221 -0.0035939249    2.4793562    5.1169401 -0.00061355092 
  473600    1.8553366 -0.0035870869    2.3403866    5.1164311 -0.00012435295 
  473800     1.778349 -0.0020788907    2.4550743    5.1172855 0.00018071918 
  474000    1.8146509 -0.0045238016    2.4029722    5.1171253 0.0029162106 
  474200    1.7216833 -0.0070484971    2.5454188    5.1177649 -0.0015921289 
  474400      1.75306 -0.0077941489    2.4994497    5.1180582  0.008829735 
  474600    1.7367961 -0.0080098365    2.5241934    5.1182199 -0.0021653919 
  474800     1.741703 -0.0062325277    2.5151988    5.1183541 -0.007844456 
  475000    1.8339998 -0.0030717864    2.3745268    5.1191201 0.0087086603 
  475200    1.8541511 -0.003061385    2.3441865    5.1189807 0.00097389458 
  475400    1.7002396 -0.0036349428    2.5768197    5.1204529 -0.0040215525 
  475600    1.7595143 -0.0051694702    2.4890595    5.1199623  0.001230342 
  475800    1.7386052 -0.0074236993    2.5231034    5.1204264 0.0016823417 
  476000     1.842367 -0.0061015096    2.3663129    5.1204121 0.0017101469 
  476200    1.8083021 -0.0057061225    2.4177127    5.1211719 -0.0020708766 
  476400    1.7724525 -0.0058752504    2.4723766    5.1219574 0.0018722671 
  476600    1.7918345 -0.005283879    2.4432641    5.1224741 0.00079673986 
  476800    1.8487713 -0.0038051583    2.3566267    5.1226171 0.0021205511 
  477000    1.7625967 -0.0055708124    2.4878207    5.1229402 0.00093152627 
  477200     1.776848 -0.0018007865    2.4627987    5.1230394 -0.0044452004 
  477400    1.8009484 -0.00068121078     2.425412    5.1228789 0.0025874391 
  477600    1.7938035 -0.0049929837    2.4394191    5.1218699 -0.00025251687 
  477800    1.7537961 -0.0021015449    2.4968515    5.1222553 -0.0012483152 
  478000    1.7520974 -0.0020877232    2.4998207    5.1226934 0.0029294177 
  478200    1.7715499 -0.0044524701    2.4732215     5.122873 0.00037812167 
  478400    1.7974353 -0.0070861371    2.4371182     5.122917 0.00035750884 
  478600    1.7864504 -0.0073351377    2.4550289    5.1241213 -0.0017287105 
  478800    1.8098059 -0.0010988186    2.4121228    5.1224423  0.001384923 
  479000    1.8187378 -0.0058632606    2.4039673     5.122904  0.002091736 
  479200    1.7868393 -0.007883452    2.4548218    5.1239485 0.00089592989 
  479400    1.7546833 -0.0050001398    2.5007124    5.1245469 0.0048372013 
  479600    1.7420463 -0.0038885082    2.5194282    5.1254418 -0.0012044259 
  479800    1.7216863 -0.0021415379    2.5493483    5.1266059 -0.0034967594 
  480000    1.8228252 -0.0037628532    2.3991113    5.1262719 0.0020822521 
  480200    1.7734603  -0.00566206    2.4757132    5.1270171 -0.0029815426 
  480400    1.7961905 -0.011678899    2.4481172    5.1274582 0.0044517954 
  480600     1.787534 -0.0080427832    2.4580915    5.1280997 -0.0019825391 
  480800    1.7540078 -0.0075070796    2.5083097    5.1286253 -0.0012457593 
  481000    1.8201468 -0.0037026461    2.4054091    5.1286173 0.0054678628 
  481200    1.7878394 0.00010844257    2.4510213    5.1296382 0.00091961481 
  481400    1.8429881 -0.0035191405     2.371314     5.128926 0.00022628538 
  481600    1.8212387 -0.0044858455    2.4050045    5.1290653 0.00057631275 
  481800    1.7659468 -0.0045703044    2.4883412    5.1294803 0.0029822892 
  482000    1.7194794 -0.0043121613    2.5585605    5.1303411 -0.0063512422 
  482200    1.8024561 -0.0065475128    2.4361035     5.129963 -0.005206978 
  482400    1.7583276 -0.0065378447    2.5035172    5.1312737 0.0015658081 
  482600    1.8062502 -0.0059390997    2.4321178    5.1322699 0.00047046959 
  482800    1.8232961 -0.006046336    2.4060695    5.1316522 9.7203871e-06 
  483000    1.7263899 -0.0046215531    2.5501321    5.1319564 0.00093664171 
  483200    1.7895116 -0.0058127173    2.4571979     5.132399 -0.0012463243 
  483400    1.8387844 -0.0054887337    2.3826016    5.1319461 0.0024920333 
  483600    1.7848913 -0.0078433425    2.4665002    5.1327485 0.00076315171 
  483800    1.8028204 -0.004408712    2.4355155    5.1320595 -0.0025184878 
  484000    1.7384173 -0.0041792843    2.5321768    5.1324626 0.0034377786 
  484200    1.7639768 -0.0057268864    2.4954391    5.1324702 0.0029509925 
  484400    1.7345685 -0.0036778429    2.5366258     5.131647 -0.002576261 
  484600    1.7360888 -0.005129968    2.5361956    5.1320423 -0.0016316028 
  484800    1.7611603 -0.0072976296    2.5008079    5.1320486 0.0022381495 
  485000    1.7647357 -0.0071564475    2.4955164     5.132255 -0.0079893798 
  485200    1.8651873 -0.0044021634    2.3420693    5.1320568 0.0014210245 
  485400    1.7943975 -0.0056695855    2.4497352    5.1323993 -0.00030414953 
  485600    1.7830877 -0.0046226225    2.4660786    5.1328455 0.0040059629 
  485800     1.735254 -0.0040795421    2.5381771    5.1338237 -1.2198323e-05 
  486000    1.7732493 -0.0063819777    2.4830872     5.133355 0.0036244121 
  486200    1.8029827 -0.0054650271    2.4382621    5.1339929 0.0043999487 
  486400    1.7884579 -0.0044254271    2.4599335    5.1349432 0.0073430862 
  486600    1.7958768 -0.00045061722    2.4450451    5.1351445 0.0011102974 
  486800    1.7867822 -0.0068773883    2.4654798    5.1355271 0.0011749651 
  487000    1.7705539 -0.0086945407    2.4919111    5.1358282 -0.0024177786 
  487200    1.8274898 -0.0067051898    2.4048885    5.1360953 0.0024006862 
  487400    1.8257177 -0.0037925994    2.4049418    5.1364063 0.00012687516 
  487600    1.7703392 -0.0043625072    2.4884597    5.1363873 0.0065339606 
  487800    1.7653648 -0.0091185264     2.500802     5.136521 0.0028195597 
  488000    1.7306815 -0.0073251327    2.5519653    5.1375157 -0.0024318885 
  488200    1.8114725 -0.0079830346    2.4308855    5.1368176 0.0036438557 
  488400    1.8649061 -0.0061507736    2.3489742    5.1367918 0.00032518746 
  488600     1.797953 -0.0038102402    2.4480053    5.1378556 -0.0048249057 
  488800    1.8250111 -0.0048081963    2.4082475    5.1376378 0.0008986289 
  489000    1.7347978 -0.006072575    2.5462977    5.1392676 0.0013473663 
  489200    1.7071662 -0.0058395252    2.5875427    5.1393484 -0.0013802835 
  489400    1.7716008 -0.0048950513    2.4899513    5.1392364 0.0020239069 
  489600     1.811446 -0.0036407671    2.4296611    5.1398958 0.0070263878 
  489800    1.7514138 -0.0051567806     2.521107    5.1398865 -0.0037346385 
  490000    1.7974039 -0.0075466165    2.4544335    5.1397246 0.0041908598 
  490200    1.8024105 -0.0071076258    2.4470737    5.1403048 -0.00032369555 
  490400    1.8287121 -0.0079695772    2.4084894    5.1402631 0.0037985713 
  490600    1.7349731 -0.0057047462    2.5473249    5.1409253 -0.0038663581 
  490800    1.8244878 -0.0035436596    2.4107494    5.1406202 0.0046302164 
  491000    1.8152711 -0.0042813965    2.4249312    5.1402559  0.001435631 
  491200     1.726352 -0.005251577      2.56049    5.1416276 0.0018376799 
  491400    1.8316348 -0.0054777982    2.4022782    5.1409223 0.0023815743 
  491600    1.8941749 -0.00084777284    2.3045393      5.14151 0.0081393246 
  491800    1.7790694 -0.0050157629    2.4811432    5.1414968 0.0019765175 
  492000     1.841607 -0.0048321212    2.3870843    5.1413144 0.0048268488 
  492200    1.8028827 -0.0014813727    2.4424499    5.1420146 -0.00095100735 
  492400    1.8417295 -0.0066323606    2.3887632    5.1413764 0.0033066882 
  492600     1.820217 -0.0039499865    2.4187332    5.1417992 0.0016316205 
  492800    1.7830717 -0.0045421022    2.4753071    5.1421306 0.00040046414 
  493000     1.847822 -2.492042e-05    2.3738529    5.1422013 0.0013408711 
  493200    1.8174899 -0.0036255248    2.4231188    5.1424236  0.002490319 
  493400    1.7870618 -0.0042955216    2.4695028    5.1425508 0.00050714848 
  493600    1.7556055 -0.0041935136    2.5170185    5.1430412 0.0026035829 
  493800    1.8427735 -0.004037075    2.3864097    5.1431824 0.0018017799 
  494000    1.8398882 -0.0041651012    2.3911198    5.1434418 0.0019611842 
  494200    1.8191638 -0.0065831214    2.4243073    5.1431623 -0.003354994 
  494400    1.7254457 -0.0034675978     2.562392    5.1439558 -0.0019140965 
  494600    1.8111921 -0.0041655081    2.4343794     5.143709 0.00069295408 
  494800    1.7079496 -0.0057505425    2.5913451    5.1444135 -0.0097033609 
  495000    1.8659831 -0.010418537    2.3606485    5.1458119 -0.00095146012 
  495200    1.7958887 -0.0057491184     2.461688    5.1465066   0.00362845 
  495400    1.7410496  -0.00721942    2.5456677    5.1468571 0.0030816805 
  495600    1.8142887 -0.0067898228    2.4358829    5.1472275 0.0032557407 
  495800    1.8264339 -0.0037995839    2.4158832    5.1484137 0.0017384887 
  496000    1.7204839 -0.0031743271     2.573974    5.1483974 -0.00089007734 
  496200    1.8010685 -0.0046107294    2.4547619    5.1484792 0.0014903495 
  496400    1.7779313 -0.0023809949    2.4874383    5.1487216 -0.0012557994 
  496600    1.8104199 -0.0059046479    2.4422408    5.1486743 0.0032626872 
  496800    1.7948284 -0.0045933006    2.4647804    5.1491663 -0.00040990573 
  497000    1.7742816 -0.0049778272    2.4964117    5.1496302 0.0046470122 
  497200    1.6856837 -0.0032950424    2.6281273    5.1502929 -0.002663586 
  497400    1.7779895 -0.0086024173    2.4948967    5.1500458 0.00024806741 
  497600    1.7847354 -0.0059155697    2.4822819    5.1502245 -0.0036315293 
  497800    1.8753683 -0.0064109999    2.3460885    5.1493202 0.00098640859 
  498000     1.841686 -0.0030643905    2.3932064    5.1493225 0.0025298759 
  498200    1.8020166 -0.0028379076    2.4524564     5.149367 0.00056834838 
  498400    1.8071436 -0.0045000776    2.4464684    5.1493979  0.002737831 
  498600    1.8432223 -0.0060423132    2.3942784    5.1497182 0.0034546277 
  498800    1.8709472 -0.007505834    2.3550398    5.1505531 0.0006572205 
  499000    1.7968462 -0.0033197405    2.4625153    5.1511978  0.003121488 
  499200    1.7687934 -0.0066771629    2.5081593    5.1514563 -0.0044946869 
  499400    1.7899963 -0.0068522989    2.4768005    5.1516882 -0.00018697341 
  499600    1.7775568 -0.0074402999    2.4960503    5.1517133 -0.0026347338 
  499800      1.77001 -0.0047171993    2.5057298    5.1528094 0.0014804646 
  500000    1.8265422 -0.0049361928    2.4220001    5.1535563 0.0013190852 
  500064     1.828978 -0.0047860268    2.4185689    5.1539245 -0.0044008219 
Loop time of 99.4588 on 1 procs for 500000 steps with 825 atoms

Performance: 434350.635 tau/day, 5027.206 timesteps/s
97.6% CPU use with 1 MPI tasks x 1 OpenMP threads

MPI task timing breakdown:
Section |  min time  |  avg time  |  max time  |%varavg| %total
---------------------------------------------------------------
Pair    | 14.716     | 14.716     | 14.716     |   0.0 | 14.80
Bond    | 51.515     | 51.515     | 51.515     |   0.0 | 51.80
Neigh   | 14.98      | 14.98      | 14.98      |   0.0 | 15.06
Comm    | 2.554      | 2.554      | 2.554      |   0.0 |  2.57
Output  | 3.3659     | 3.3659     | 3.3659     |   0.0 |  3.38
Modify  | 10.437     | 10.437     | 10.437     |   0.0 | 10.49
Other   |            | 1.892      |            |       |  1.90

Nlocal:    825 ave 825 max 825 min
Histogram: 1 0 0 0 0 0 0 0 0 0
Nghost:    522 ave 522 max 522 min
Histogram: 1 0 0 0 0 0 0 0 0 0
Neighs:    538 ave 538 max 538 min
Histogram: 1 0 0 0 0 0 0 0 0 0

Total # of neighbors = 538
Ave neighs/atom = 0.652121
Ave special neighs/atom = 5.63636
Neighbor list builds = 29302
Dangerous builds = 0


# ----------------- Run Section -----------------

# The lines above define the system you want to simulate.
# What you do next is up to you.
# Typically a user would minimize and equilibrate
# the system using commands similar to the following:
#  ----   examples   ----
#
#  -- minimize --
# minimize 1.0e-5 1.0e-7 1000 10000
# (Note: Some fixes, for example "shake", interfere with the minimize command,
#        You can use the "unfix" command to disable them before minimization.)
#  -- declare time step for normal MD --
# timestep 1.0
#  -- run at constant pressure (Nose-Hoover)--
# fix   fxnpt all npt temp 300.0 300.0 100.0 iso 1.0 1.0 1000.0 drag 1.0
#  -- ALTERNATELY, run at constant volume (Nose-Hoover) --
# fix   fxnvt all nvt temp 300.0 300.0 500.0 tchain 1
#  -- ALTERNATELY, run at constant volume using Langevin dynamics. --
#  -- (This is good for sparse CG polymers in implicit solvent.)   --
# fix fxLAN all langevin 300.0 300.0 5000 48279
# fix fxNVE all nve  #(<--needed by fix langevin)
#  -- Now, finally run the simulation --
# run   50000
#  ---- (end of examples) ----

Total wall time: 0:01:39
