LAMMPS Description

     825  atoms
     800  bonds
     725  angles
     0  dihedrals
     0  impropers

     8  atom types
     3  bond types
     4  angle types

  -20 20 xlo xhi
  -20 20 ylo yhi
  -20 20 zlo zhi

Masses

1 1  # NP
2 0.5  # GR
3 0.5  # A
4 0.5  # B
5 0.25  # SA
6 0.25  # ACTIVE
7 0.25  # DORMANT
8 0.25  # ANCHOR

Atoms  # angle

1 2 8 1.0 -6.123233995736766e-17 0.0
2 2 2 0.0 0.0 0.0
3 2 6 -1.0 6.123233995736766e-17 0.0
4 3 5 0.5 1.1 0.0
5 3 3 0.0 1.1 0.0
6 3 5 -0.5 1.1 0.0
7 4 5 0.5 2.2 0.0
8 4 4 0.0 2.2 0.0
9 4 5 -0.5 2.2 0.0
10 5 5 0.5 3.3 0.0
11 5 3 0.0 3.3 0.0
12 5 5 -0.5 3.3 0.0
13 6 5 0.5 4.4 0.0
14 6 4 0.0 4.4 0.0
15 6 5 -0.5 4.4 0.0
16 7 5 0.5 5.5 0.0
17 7 3 0.0 5.5 0.0
18 7 5 -0.5 5.5 0.0
19 8 5 0.5 6.6 0.0
20 8 4 0.0 6.6 0.0
21 8 5 -0.5 6.6 0.0
22 9 5 0.5 7.7 0.0
23 9 3 0.0 7.7 0.0
24 9 5 -0.5 7.7 0.0
25 10 5 0.5 8.8 0.0
26 10 4 0.0 8.8 0.0
27 10 5 -0.5 8.8 0.0
28 11 5 0.5 9.9 0.0
29 11 3 0.0 9.9 0.0
30 11 5 -0.5 9.9 0.0
31 12 5 0.5 11.0 0.0
32 12 4 0.0 11.0 0.0
33 12 5 -0.5 11.0 0.0
34 14 8 1.0 -6.123233995736766e-17 2.0
35 14 2 0.0 0.0 2.0
36 14 6 -1.0 6.123233995736766e-17 2.0
37 15 5 0.5 1.1 2.0
38 15 3 0.0 1.1 2.0
39 15 5 -0.5 1.1 2.0
40 16 5 0.5 2.2 2.0
41 16 4 0.0 2.2 2.0
42 16 5 -0.5 2.2 2.0
43 17 5 0.5 3.3 2.0
44 17 3 0.0 3.3 2.0
45 17 5 -0.5 3.3 2.0
46 18 5 0.5 4.4 2.0
47 18 4 0.0 4.4 2.0
48 18 5 -0.5 4.4 2.0
49 19 5 0.5 5.5 2.0
50 19 3 0.0 5.5 2.0
51 19 5 -0.5 5.5 2.0
52 20 5 0.5 6.6 2.0
53 20 4 0.0 6.6 2.0
54 20 5 -0.5 6.6 2.0
55 21 5 0.5 7.7 2.0
56 21 3 0.0 7.7 2.0
57 21 5 -0.5 7.7 2.0
58 22 5 0.5 8.8 2.0
59 22 4 0.0 8.8 2.0
60 22 5 -0.5 8.8 2.0
61 23 5 0.5 9.9 2.0
62 23 3 0.0 9.9 2.0
63 23 5 -0.5 9.9 2.0
64 24 5 0.5 11.0 2.0
65 24 4 0.0 11.0 2.0
66 24 5 -0.5 11.0 2.0
67 26 8 1.0 -6.123233995736766e-17 4.0
68 26 2 0.0 0.0 4.0
69 26 6 -1.0 6.123233995736766e-17 4.0
70 27 5 0.5 1.1 4.0
71 27 3 0.0 1.1 4.0
72 27 5 -0.5 1.1 4.0
73 28 5 0.5 2.2 4.0
74 28 4 0.0 2.2 4.0
75 28 5 -0.5 2.2 4.0
76 29 5 0.5 3.3 4.0
77 29 3 0.0 3.3 4.0
78 29 5 -0.5 3.3 4.0
79 30 5 0.5 4.4 4.0
80 30 4 0.0 4.4 4.0
81 30 5 -0.5 4.4 4.0
82 31 5 0.5 5.5 4.0
83 31 3 0.0 5.5 4.0
84 31 5 -0.5 5.5 4.0
85 32 5 0.5 6.6 4.0
86 32 4 0.0 6.6 4.0
87 32 5 -0.5 6.6 4.0
88 33 5 0.5 7.7 4.0
89 33 3 0.0 7.7 4.0
90 33 5 -0.5 7.7 4.0
91 34 5 0.5 8.8 4.0
92 34 4 0.0 8.8 4.0
93 34 5 -0.5 8.8 4.0
94 35 5 0.5 9.9 4.0
95 35 3 0.0 9.9 4.0
96 35 5 -0.5 9.9 4.0
97 36 5 0.5 11.0 4.0
98 36 4 0.0 11.0 4.0
99 36 5 -0.5 11.0 4.0
100 38 8 1.0 -6.123233995736766e-17 6.0
101 38 2 0.0 0.0 6.0
102 38 6 -1.0 6.123233995736766e-17 6.0
103 39 5 0.5 1.1 6.0
104 39 3 0.0 1.1 6.0
105 39 5 -0.5 1.1 6.0
106 40 5 0.5 2.2 6.0
107 40 4 0.0 2.2 6.0
108 40 5 -0.5 2.2 6.0
109 41 5 0.5 3.3 6.0
110 41 3 0.0 3.3 6.0
111 41 5 -0.5 3.3 6.0
112 42 5 0.5 4.4 6.0
113 42 4 0.0 4.4 6.0
114 42 5 -0.5 4.4 6.0
115 43 5 0.5 5.5 6.0
116 43 3 0.0 5.5 6.0
117 43 5 -0.5 5.5 6.0
118 44 5 0.5 6.6 6.0
119 44 4 0.0 6.6 6.0
120 44 5 -0.5 6.6 6.0
121 45 5 0.5 7.7 6.0
122 45 3 0.0 7.7 6.0
123 45 5 -0.5 7.7 6.0
124 46 5 0.5 8.8 6.0
125 46 4 0.0 8.8 6.0
126 46 5 -0.5 8.8 6.0
127 47 5 0.5 9.9 6.0
128 47 3 0.0 9.9 6.0
129 47 5 -0.5 9.9 6.0
130 48 5 0.5 11.0 6.0
131 48 4 0.0 11.0 6.0
132 48 5 -0.5 11.0 6.0
133 50 8 1.0 -6.123233995736766e-17 8.0
134 50 2 0.0 0.0 8.0
135 50 6 -1.0 6.123233995736766e-17 8.0
136 51 5 0.5 1.1 8.0
137 51 3 0.0 1.1 8.0
138 51 5 -0.5 1.1 8.0
139 52 5 0.5 2.2 8.0
140 52 4 0.0 2.2 8.0
141 52 5 -0.5 2.2 8.0
142 53 5 0.5 3.3 8.0
143 53 3 0.0 3.3 8.0
144 53 5 -0.5 3.3 8.0
145 54 5 0.5 4.4 8.0
146 54 4 0.0 4.4 8.0
147 54 5 -0.5 4.4 8.0
148 55 5 0.5 5.5 8.0
149 55 3 0.0 5.5 8.0
150 55 5 -0.5 5.5 8.0
151 56 5 0.5 6.6 8.0
152 56 4 0.0 6.6 8.0
153 56 5 -0.5 6.6 8.0
154 57 5 0.5 7.7 8.0
155 57 3 0.0 7.7 8.0
156 57 5 -0.5 7.7 8.0
157 58 5 0.5 8.8 8.0
158 58 4 0.0 8.8 8.0
159 58 5 -0.5 8.8 8.0
160 59 5 0.5 9.9 8.0
161 59 3 0.0 9.9 8.0
162 59 5 -0.5 9.9 8.0
163 60 5 0.5 11.0 8.0
164 60 4 0.0 11.0 8.0
165 60 5 -0.5 11.0 8.0
166 62 8 3.0 -6.123233995736766e-17 0.0
167 62 2 2.0 0.0 0.0
168 62 6 1.0 6.123233995736766e-17 0.0
169 63 5 2.5 1.1 0.0
170 63 3 2.0 1.1 0.0
171 63 5 1.5 1.1 0.0
172 64 5 2.5 2.2 0.0
173 64 4 2.0 2.2 0.0
174 64 5 1.5 2.2 0.0
175 65 5 2.5 3.3 0.0
176 65 3 2.0 3.3 0.0
177 65 5 1.5 3.3 0.0
178 66 5 2.5 4.4 0.0
179 66 4 2.0 4.4 0.0
180 66 5 1.5 4.4 0.0
181 67 5 2.5 5.5 0.0
182 67 3 2.0 5.5 0.0
183 67 5 1.5 5.5 0.0
184 68 5 2.5 6.6 0.0
185 68 4 2.0 6.6 0.0
186 68 5 1.5 6.6 0.0
187 69 5 2.5 7.7 0.0
188 69 3 2.0 7.7 0.0
189 69 5 1.5 7.7 0.0
190 70 5 2.5 8.8 0.0
191 70 4 2.0 8.8 0.0
192 70 5 1.5 8.8 0.0
193 71 5 2.5 9.9 0.0
194 71 3 2.0 9.9 0.0
195 71 5 1.5 9.9 0.0
196 72 5 2.5 11.0 0.0
197 72 4 2.0 11.0 0.0
198 72 5 1.5 11.0 0.0
199 74 8 3.0 -6.123233995736766e-17 2.0
200 74 2 2.0 0.0 2.0
201 74 6 1.0 6.123233995736766e-17 2.0
202 75 5 2.5 1.1 2.0
203 75 3 2.0 1.1 2.0
204 75 5 1.5 1.1 2.0
205 76 5 2.5 2.2 2.0
206 76 4 2.0 2.2 2.0
207 76 5 1.5 2.2 2.0
208 77 5 2.5 3.3 2.0
209 77 3 2.0 3.3 2.0
210 77 5 1.5 3.3 2.0
211 78 5 2.5 4.4 2.0
212 78 4 2.0 4.4 2.0
213 78 5 1.5 4.4 2.0
214 79 5 2.5 5.5 2.0
215 79 3 2.0 5.5 2.0
216 79 5 1.5 5.5 2.0
217 80 5 2.5 6.6 2.0
218 80 4 2.0 6.6 2.0
219 80 5 1.5 6.6 2.0
220 81 5 2.5 7.7 2.0
221 81 3 2.0 7.7 2.0
222 81 5 1.5 7.7 2.0
223 82 5 2.5 8.8 2.0
224 82 4 2.0 8.8 2.0
225 82 5 1.5 8.8 2.0
226 83 5 2.5 9.9 2.0
227 83 3 2.0 9.9 2.0
228 83 5 1.5 9.9 2.0
229 84 5 2.5 11.0 2.0
230 84 4 2.0 11.0 2.0
231 84 5 1.5 11.0 2.0
232 86 8 3.0 -6.123233995736766e-17 4.0
233 86 2 2.0 0.0 4.0
234 86 6 1.0 6.123233995736766e-17 4.0
235 87 5 2.5 1.1 4.0
236 87 3 2.0 1.1 4.0
237 87 5 1.5 1.1 4.0
238 88 5 2.5 2.2 4.0
239 88 4 2.0 2.2 4.0
240 88 5 1.5 2.2 4.0
241 89 5 2.5 3.3 4.0
242 89 3 2.0 3.3 4.0
243 89 5 1.5 3.3 4.0
244 90 5 2.5 4.4 4.0
245 90 4 2.0 4.4 4.0
246 90 5 1.5 4.4 4.0
247 91 5 2.5 5.5 4.0
248 91 3 2.0 5.5 4.0
249 91 5 1.5 5.5 4.0
250 92 5 2.5 6.6 4.0
251 92 4 2.0 6.6 4.0
252 92 5 1.5 6.6 4.0
253 93 5 2.5 7.7 4.0
254 93 3 2.0 7.7 4.0
255 93 5 1.5 7.7 4.0
256 94 5 2.5 8.8 4.0
257 94 4 2.0 8.8 4.0
258 94 5 1.5 8.8 4.0
259 95 5 2.5 9.9 4.0
260 95 3 2.0 9.9 4.0
261 95 5 1.5 9.9 4.0
262 96 5 2.5 11.0 4.0
263 96 4 2.0 11.0 4.0
264 96 5 1.5 11.0 4.0
265 98 8 3.0 -6.123233995736766e-17 6.0
266 98 2 2.0 0.0 6.0
267 98 6 1.0 6.123233995736766e-17 6.0
268 99 5 2.5 1.1 6.0
269 99 3 2.0 1.1 6.0
270 99 5 1.5 1.1 6.0
271 100 5 2.5 2.2 6.0
272 100 4 2.0 2.2 6.0
273 100 5 1.5 2.2 6.0
274 101 5 2.5 3.3 6.0
275 101 3 2.0 3.3 6.0
276 101 5 1.5 3.3 6.0
277 102 5 2.5 4.4 6.0
278 102 4 2.0 4.4 6.0
279 102 5 1.5 4.4 6.0
280 103 5 2.5 5.5 6.0
281 103 3 2.0 5.5 6.0
282 103 5 1.5 5.5 6.0
283 104 5 2.5 6.6 6.0
284 104 4 2.0 6.6 6.0
285 104 5 1.5 6.6 6.0
286 105 5 2.5 7.7 6.0
287 105 3 2.0 7.7 6.0
288 105 5 1.5 7.7 6.0
289 106 5 2.5 8.8 6.0
290 106 4 2.0 8.8 6.0
291 106 5 1.5 8.8 6.0
292 107 5 2.5 9.9 6.0
293 107 3 2.0 9.9 6.0
294 107 5 1.5 9.9 6.0
295 108 5 2.5 11.0 6.0
296 108 4 2.0 11.0 6.0
297 108 5 1.5 11.0 6.0
298 110 8 3.0 -6.123233995736766e-17 8.0
299 110 2 2.0 0.0 8.0
300 110 6 1.0 6.123233995736766e-17 8.0
301 111 5 2.5 1.1 8.0
302 111 3 2.0 1.1 8.0
303 111 5 1.5 1.1 8.0
304 112 5 2.5 2.2 8.0
305 112 4 2.0 2.2 8.0
306 112 5 1.5 2.2 8.0
307 113 5 2.5 3.3 8.0
308 113 3 2.0 3.3 8.0
309 113 5 1.5 3.3 8.0
310 114 5 2.5 4.4 8.0
311 114 4 2.0 4.4 8.0
312 114 5 1.5 4.4 8.0
313 115 5 2.5 5.5 8.0
314 115 3 2.0 5.5 8.0
315 115 5 1.5 5.5 8.0
316 116 5 2.5 6.6 8.0
317 116 4 2.0 6.6 8.0
318 116 5 1.5 6.6 8.0
319 117 5 2.5 7.7 8.0
320 117 3 2.0 7.7 8.0
321 117 5 1.5 7.7 8.0
322 118 5 2.5 8.8 8.0
323 118 4 2.0 8.8 8.0
324 118 5 1.5 8.8 8.0
325 119 5 2.5 9.9 8.0
326 119 3 2.0 9.9 8.0
327 119 5 1.5 9.9 8.0
328 120 5 2.5 11.0 8.0
329 120 4 2.0 11.0 8.0
330 120 5 1.5 11.0 8.0
331 122 8 5.0 -6.123233995736766e-17 0.0
332 122 2 4.0 0.0 0.0
333 122 6 3.0 6.123233995736766e-17 0.0
334 123 5 4.5 1.1 0.0
335 123 3 4.0 1.1 0.0
336 123 5 3.5 1.1 0.0
337 124 5 4.5 2.2 0.0
338 124 4 4.0 2.2 0.0
339 124 5 3.5 2.2 0.0
340 125 5 4.5 3.3 0.0
341 125 3 4.0 3.3 0.0
342 125 5 3.5 3.3 0.0
343 126 5 4.5 4.4 0.0
344 126 4 4.0 4.4 0.0
345 126 5 3.5 4.4 0.0
346 127 5 4.5 5.5 0.0
347 127 3 4.0 5.5 0.0
348 127 5 3.5 5.5 0.0
349 128 5 4.5 6.6 0.0
350 128 4 4.0 6.6 0.0
351 128 5 3.5 6.6 0.0
352 129 5 4.5 7.7 0.0
353 129 3 4.0 7.7 0.0
354 129 5 3.5 7.7 0.0
355 130 5 4.5 8.8 0.0
356 130 4 4.0 8.8 0.0
357 130 5 3.5 8.8 0.0
358 131 5 4.5 9.9 0.0
359 131 3 4.0 9.9 0.0
360 131 5 3.5 9.9 0.0
361 132 5 4.5 11.0 0.0
362 132 4 4.0 11.0 0.0
363 132 5 3.5 11.0 0.0
364 134 8 5.0 -6.123233995736766e-17 2.0
365 134 2 4.0 0.0 2.0
366 134 6 3.0 6.123233995736766e-17 2.0
367 135 5 4.5 1.1 2.0
368 135 3 4.0 1.1 2.0
369 135 5 3.5 1.1 2.0
370 136 5 4.5 2.2 2.0
371 136 4 4.0 2.2 2.0
372 136 5 3.5 2.2 2.0
373 137 5 4.5 3.3 2.0
374 137 3 4.0 3.3 2.0
375 137 5 3.5 3.3 2.0
376 138 5 4.5 4.4 2.0
377 138 4 4.0 4.4 2.0
378 138 5 3.5 4.4 2.0
379 139 5 4.5 5.5 2.0
380 139 3 4.0 5.5 2.0
381 139 5 3.5 5.5 2.0
382 140 5 4.5 6.6 2.0
383 140 4 4.0 6.6 2.0
384 140 5 3.5 6.6 2.0
385 141 5 4.5 7.7 2.0
386 141 3 4.0 7.7 2.0
387 141 5 3.5 7.7 2.0
388 142 5 4.5 8.8 2.0
389 142 4 4.0 8.8 2.0
390 142 5 3.5 8.8 2.0
391 143 5 4.5 9.9 2.0
392 143 3 4.0 9.9 2.0
393 143 5 3.5 9.9 2.0
394 144 5 4.5 11.0 2.0
395 144 4 4.0 11.0 2.0
396 144 5 3.5 11.0 2.0
397 146 8 5.0 -6.123233995736766e-17 4.0
398 146 2 4.0 0.0 4.0
399 146 6 3.0 6.123233995736766e-17 4.0
400 147 5 4.5 1.1 4.0
401 147 3 4.0 1.1 4.0
402 147 5 3.5 1.1 4.0
403 148 5 4.5 2.2 4.0
404 148 4 4.0 2.2 4.0
405 148 5 3.5 2.2 4.0
406 149 5 4.5 3.3 4.0
407 149 3 4.0 3.3 4.0
408 149 5 3.5 3.3 4.0
409 150 5 4.5 4.4 4.0
410 150 4 4.0 4.4 4.0
411 150 5 3.5 4.4 4.0
412 151 5 4.5 5.5 4.0
413 151 3 4.0 5.5 4.0
414 151 5 3.5 5.5 4.0
415 152 5 4.5 6.6 4.0
416 152 4 4.0 6.6 4.0
417 152 5 3.5 6.6 4.0
418 153 5 4.5 7.7 4.0
419 153 3 4.0 7.7 4.0
420 153 5 3.5 7.7 4.0
421 154 5 4.5 8.8 4.0
422 154 4 4.0 8.8 4.0
423 154 5 3.5 8.8 4.0
424 155 5 4.5 9.9 4.0
425 155 3 4.0 9.9 4.0
426 155 5 3.5 9.9 4.0
427 156 5 4.5 11.0 4.0
428 156 4 4.0 11.0 4.0
429 156 5 3.5 11.0 4.0
430 158 8 5.0 -6.123233995736766e-17 6.0
431 158 2 4.0 0.0 6.0
432 158 6 3.0 6.123233995736766e-17 6.0
433 159 5 4.5 1.1 6.0
434 159 3 4.0 1.1 6.0
435 159 5 3.5 1.1 6.0
436 160 5 4.5 2.2 6.0
437 160 4 4.0 2.2 6.0
438 160 5 3.5 2.2 6.0
439 161 5 4.5 3.3 6.0
440 161 3 4.0 3.3 6.0
441 161 5 3.5 3.3 6.0
442 162 5 4.5 4.4 6.0
443 162 4 4.0 4.4 6.0
444 162 5 3.5 4.4 6.0
445 163 5 4.5 5.5 6.0
446 163 3 4.0 5.5 6.0
447 163 5 3.5 5.5 6.0
448 164 5 4.5 6.6 6.0
449 164 4 4.0 6.6 6.0
450 164 5 3.5 6.6 6.0
451 165 5 4.5 7.7 6.0
452 165 3 4.0 7.7 6.0
453 165 5 3.5 7.7 6.0
454 166 5 4.5 8.8 6.0
455 166 4 4.0 8.8 6.0
456 166 5 3.5 8.8 6.0
457 167 5 4.5 9.9 6.0
458 167 3 4.0 9.9 6.0
459 167 5 3.5 9.9 6.0
460 168 5 4.5 11.0 6.0
461 168 4 4.0 11.0 6.0
462 168 5 3.5 11.0 6.0
463 170 8 5.0 -6.123233995736766e-17 8.0
464 170 2 4.0 0.0 8.0
465 170 6 3.0 6.123233995736766e-17 8.0
466 171 5 4.5 1.1 8.0
467 171 3 4.0 1.1 8.0
468 171 5 3.5 1.1 8.0
469 172 5 4.5 2.2 8.0
470 172 4 4.0 2.2 8.0
471 172 5 3.5 2.2 8.0
472 173 5 4.5 3.3 8.0
473 173 3 4.0 3.3 8.0
474 173 5 3.5 3.3 8.0
475 174 5 4.5 4.4 8.0
476 174 4 4.0 4.4 8.0
477 174 5 3.5 4.4 8.0
478 175 5 4.5 5.5 8.0
479 175 3 4.0 5.5 8.0
480 175 5 3.5 5.5 8.0
481 176 5 4.5 6.6 8.0
482 176 4 4.0 6.6 8.0
483 176 5 3.5 6.6 8.0
484 177 5 4.5 7.7 8.0
485 177 3 4.0 7.7 8.0
486 177 5 3.5 7.7 8.0
487 178 5 4.5 8.8 8.0
488 178 4 4.0 8.8 8.0
489 178 5 3.5 8.8 8.0
490 179 5 4.5 9.9 8.0
491 179 3 4.0 9.9 8.0
492 179 5 3.5 9.9 8.0
493 180 5 4.5 11.0 8.0
494 180 4 4.0 11.0 8.0
495 180 5 3.5 11.0 8.0
496 182 8 7.0 -6.123233995736766e-17 0.0
497 182 2 6.0 0.0 0.0
498 182 6 5.0 6.123233995736766e-17 0.0
499 183 5 6.5 1.1 0.0
500 183 3 6.0 1.1 0.0
501 183 5 5.5 1.1 0.0
502 184 5 6.5 2.2 0.0
503 184 4 6.0 2.2 0.0
504 184 5 5.5 2.2 0.0
505 185 5 6.5 3.3 0.0
506 185 3 6.0 3.3 0.0
507 185 5 5.5 3.3 0.0
508 186 5 6.5 4.4 0.0
509 186 4 6.0 4.4 0.0
510 186 5 5.5 4.4 0.0
511 187 5 6.5 5.5 0.0
512 187 3 6.0 5.5 0.0
513 187 5 5.5 5.5 0.0
514 188 5 6.5 6.6 0.0
515 188 4 6.0 6.6 0.0
516 188 5 5.5 6.6 0.0
517 189 5 6.5 7.7 0.0
518 189 3 6.0 7.7 0.0
519 189 5 5.5 7.7 0.0
520 190 5 6.5 8.8 0.0
521 190 4 6.0 8.8 0.0
522 190 5 5.5 8.8 0.0
523 191 5 6.5 9.9 0.0
524 191 3 6.0 9.9 0.0
525 191 5 5.5 9.9 0.0
526 192 5 6.5 11.0 0.0
527 192 4 6.0 11.0 0.0
528 192 5 5.5 11.0 0.0
529 194 8 7.0 -6.123233995736766e-17 2.0
530 194 2 6.0 0.0 2.0
531 194 6 5.0 6.123233995736766e-17 2.0
532 195 5 6.5 1.1 2.0
533 195 3 6.0 1.1 2.0
534 195 5 5.5 1.1 2.0
535 196 5 6.5 2.2 2.0
536 196 4 6.0 2.2 2.0
537 196 5 5.5 2.2 2.0
538 197 5 6.5 3.3 2.0
539 197 3 6.0 3.3 2.0
540 197 5 5.5 3.3 2.0
541 198 5 6.5 4.4 2.0
542 198 4 6.0 4.4 2.0
543 198 5 5.5 4.4 2.0
544 199 5 6.5 5.5 2.0
545 199 3 6.0 5.5 2.0
546 199 5 5.5 5.5 2.0
547 200 5 6.5 6.6 2.0
548 200 4 6.0 6.6 2.0
549 200 5 5.5 6.6 2.0
550 201 5 6.5 7.7 2.0
551 201 3 6.0 7.7 2.0
552 201 5 5.5 7.7 2.0
553 202 5 6.5 8.8 2.0
554 202 4 6.0 8.8 2.0
555 202 5 5.5 8.8 2.0
556 203 5 6.5 9.9 2.0
557 203 3 6.0 9.9 2.0
558 203 5 5.5 9.9 2.0
559 204 5 6.5 11.0 2.0
560 204 4 6.0 11.0 2.0
561 204 5 5.5 11.0 2.0
562 206 8 7.0 -6.123233995736766e-17 4.0
563 206 2 6.0 0.0 4.0
564 206 6 5.0 6.123233995736766e-17 4.0
565 207 5 6.5 1.1 4.0
566 207 3 6.0 1.1 4.0
567 207 5 5.5 1.1 4.0
568 208 5 6.5 2.2 4.0
569 208 4 6.0 2.2 4.0
570 208 5 5.5 2.2 4.0
571 209 5 6.5 3.3 4.0
572 209 3 6.0 3.3 4.0
573 209 5 5.5 3.3 4.0
574 210 5 6.5 4.4 4.0
575 210 4 6.0 4.4 4.0
576 210 5 5.5 4.4 4.0
577 211 5 6.5 5.5 4.0
578 211 3 6.0 5.5 4.0
579 211 5 5.5 5.5 4.0
580 212 5 6.5 6.6 4.0
581 212 4 6.0 6.6 4.0
582 212 5 5.5 6.6 4.0
583 213 5 6.5 7.7 4.0
584 213 3 6.0 7.7 4.0
585 213 5 5.5 7.7 4.0
586 214 5 6.5 8.8 4.0
587 214 4 6.0 8.8 4.0
588 214 5 5.5 8.8 4.0
589 215 5 6.5 9.9 4.0
590 215 3 6.0 9.9 4.0
591 215 5 5.5 9.9 4.0
592 216 5 6.5 11.0 4.0
593 216 4 6.0 11.0 4.0
594 216 5 5.5 11.0 4.0
595 218 8 7.0 -6.123233995736766e-17 6.0
596 218 2 6.0 0.0 6.0
597 218 6 5.0 6.123233995736766e-17 6.0
598 219 5 6.5 1.1 6.0
599 219 3 6.0 1.1 6.0
600 219 5 5.5 1.1 6.0
601 220 5 6.5 2.2 6.0
602 220 4 6.0 2.2 6.0
603 220 5 5.5 2.2 6.0
604 221 5 6.5 3.3 6.0
605 221 3 6.0 3.3 6.0
606 221 5 5.5 3.3 6.0
607 222 5 6.5 4.4 6.0
608 222 4 6.0 4.4 6.0
609 222 5 5.5 4.4 6.0
610 223 5 6.5 5.5 6.0
611 223 3 6.0 5.5 6.0
612 223 5 5.5 5.5 6.0
613 224 5 6.5 6.6 6.0
614 224 4 6.0 6.6 6.0
615 224 5 5.5 6.6 6.0
616 225 5 6.5 7.7 6.0
617 225 3 6.0 7.7 6.0
618 225 5 5.5 7.7 6.0
619 226 5 6.5 8.8 6.0
620 226 4 6.0 8.8 6.0
621 226 5 5.5 8.8 6.0
622 227 5 6.5 9.9 6.0
623 227 3 6.0 9.9 6.0
624 227 5 5.5 9.9 6.0
625 228 5 6.5 11.0 6.0
626 228 4 6.0 11.0 6.0
627 228 5 5.5 11.0 6.0
628 230 8 7.0 -6.123233995736766e-17 8.0
629 230 2 6.0 0.0 8.0
630 230 6 5.0 6.123233995736766e-17 8.0
631 231 5 6.5 1.1 8.0
632 231 3 6.0 1.1 8.0
633 231 5 5.5 1.1 8.0
634 232 5 6.5 2.2 8.0
635 232 4 6.0 2.2 8.0
636 232 5 5.5 2.2 8.0
637 233 5 6.5 3.3 8.0
638 233 3 6.0 3.3 8.0
639 233 5 5.5 3.3 8.0
640 234 5 6.5 4.4 8.0
641 234 4 6.0 4.4 8.0
642 234 5 5.5 4.4 8.0
643 235 5 6.5 5.5 8.0
644 235 3 6.0 5.5 8.0
645 235 5 5.5 5.5 8.0
646 236 5 6.5 6.6 8.0
647 236 4 6.0 6.6 8.0
648 236 5 5.5 6.6 8.0
649 237 5 6.5 7.7 8.0
650 237 3 6.0 7.7 8.0
651 237 5 5.5 7.7 8.0
652 238 5 6.5 8.8 8.0
653 238 4 6.0 8.8 8.0
654 238 5 5.5 8.8 8.0
655 239 5 6.5 9.9 8.0
656 239 3 6.0 9.9 8.0
657 239 5 5.5 9.9 8.0
658 240 5 6.5 11.0 8.0
659 240 4 6.0 11.0 8.0
660 240 5 5.5 11.0 8.0
661 242 8 9.0 -6.123233995736766e-17 0.0
662 242 2 8.0 0.0 0.0
663 242 6 7.0 6.123233995736766e-17 0.0
664 243 5 8.5 1.1 0.0
665 243 3 8.0 1.1 0.0
666 243 5 7.5 1.1 0.0
667 244 5 8.5 2.2 0.0
668 244 4 8.0 2.2 0.0
669 244 5 7.5 2.2 0.0
670 245 5 8.5 3.3 0.0
671 245 3 8.0 3.3 0.0
672 245 5 7.5 3.3 0.0
673 246 5 8.5 4.4 0.0
674 246 4 8.0 4.4 0.0
675 246 5 7.5 4.4 0.0
676 247 5 8.5 5.5 0.0
677 247 3 8.0 5.5 0.0
678 247 5 7.5 5.5 0.0
679 248 5 8.5 6.6 0.0
680 248 4 8.0 6.6 0.0
681 248 5 7.5 6.6 0.0
682 249 5 8.5 7.7 0.0
683 249 3 8.0 7.7 0.0
684 249 5 7.5 7.7 0.0
685 250 5 8.5 8.8 0.0
686 250 4 8.0 8.8 0.0
687 250 5 7.5 8.8 0.0
688 251 5 8.5 9.9 0.0
689 251 3 8.0 9.9 0.0
690 251 5 7.5 9.9 0.0
691 252 5 8.5 11.0 0.0
692 252 4 8.0 11.0 0.0
693 252 5 7.5 11.0 0.0
694 254 8 9.0 -6.123233995736766e-17 2.0
695 254 2 8.0 0.0 2.0
696 254 6 7.0 6.123233995736766e-17 2.0
697 255 5 8.5 1.1 2.0
698 255 3 8.0 1.1 2.0
699 255 5 7.5 1.1 2.0
700 256 5 8.5 2.2 2.0
701 256 4 8.0 2.2 2.0
702 256 5 7.5 2.2 2.0
703 257 5 8.5 3.3 2.0
704 257 3 8.0 3.3 2.0
705 257 5 7.5 3.3 2.0
706 258 5 8.5 4.4 2.0
707 258 4 8.0 4.4 2.0
708 258 5 7.5 4.4 2.0
709 259 5 8.5 5.5 2.0
710 259 3 8.0 5.5 2.0
711 259 5 7.5 5.5 2.0
712 260 5 8.5 6.6 2.0
713 260 4 8.0 6.6 2.0
714 260 5 7.5 6.6 2.0
715 261 5 8.5 7.7 2.0
716 261 3 8.0 7.7 2.0
717 261 5 7.5 7.7 2.0
718 262 5 8.5 8.8 2.0
719 262 4 8.0 8.8 2.0
720 262 5 7.5 8.8 2.0
721 263 5 8.5 9.9 2.0
722 263 3 8.0 9.9 2.0
723 263 5 7.5 9.9 2.0
724 264 5 8.5 11.0 2.0
725 264 4 8.0 11.0 2.0
726 264 5 7.5 11.0 2.0
727 266 8 9.0 -6.123233995736766e-17 4.0
728 266 2 8.0 0.0 4.0
729 266 6 7.0 6.123233995736766e-17 4.0
730 267 5 8.5 1.1 4.0
731 267 3 8.0 1.1 4.0
732 267 5 7.5 1.1 4.0
733 268 5 8.5 2.2 4.0
734 268 4 8.0 2.2 4.0
735 268 5 7.5 2.2 4.0
736 269 5 8.5 3.3 4.0
737 269 3 8.0 3.3 4.0
738 269 5 7.5 3.3 4.0
739 270 5 8.5 4.4 4.0
740 270 4 8.0 4.4 4.0
741 270 5 7.5 4.4 4.0
742 271 5 8.5 5.5 4.0
743 271 3 8.0 5.5 4.0
744 271 5 7.5 5.5 4.0
745 272 5 8.5 6.6 4.0
746 272 4 8.0 6.6 4.0
747 272 5 7.5 6.6 4.0
748 273 5 8.5 7.7 4.0
749 273 3 8.0 7.7 4.0
750 273 5 7.5 7.7 4.0
751 274 5 8.5 8.8 4.0
752 274 4 8.0 8.8 4.0
753 274 5 7.5 8.8 4.0
754 275 5 8.5 9.9 4.0
755 275 3 8.0 9.9 4.0
756 275 5 7.5 9.9 4.0
757 276 5 8.5 11.0 4.0
758 276 4 8.0 11.0 4.0
759 276 5 7.5 11.0 4.0
760 278 8 9.0 -6.123233995736766e-17 6.0
761 278 2 8.0 0.0 6.0
762 278 6 7.0 6.123233995736766e-17 6.0
763 279 5 8.5 1.1 6.0
764 279 3 8.0 1.1 6.0
765 279 5 7.5 1.1 6.0
766 280 5 8.5 2.2 6.0
767 280 4 8.0 2.2 6.0
768 280 5 7.5 2.2 6.0
769 281 5 8.5 3.3 6.0
770 281 3 8.0 3.3 6.0
771 281 5 7.5 3.3 6.0
772 282 5 8.5 4.4 6.0
773 282 4 8.0 4.4 6.0
774 282 5 7.5 4.4 6.0
775 283 5 8.5 5.5 6.0
776 283 3 8.0 5.5 6.0
777 283 5 7.5 5.5 6.0
778 284 5 8.5 6.6 6.0
779 284 4 8.0 6.6 6.0
780 284 5 7.5 6.6 6.0
781 285 5 8.5 7.7 6.0
782 285 3 8.0 7.7 6.0
783 285 5 7.5 7.7 6.0
784 286 5 8.5 8.8 6.0
785 286 4 8.0 8.8 6.0
786 286 5 7.5 8.8 6.0
787 287 5 8.5 9.9 6.0
788 287 3 8.0 9.9 6.0
789 287 5 7.5 9.9 6.0
790 288 5 8.5 11.0 6.0
791 288 4 8.0 11.0 6.0
792 288 5 7.5 11.0 6.0
793 290 8 9.0 -6.123233995736766e-17 8.0
794 290 2 8.0 0.0 8.0
795 290 6 7.0 6.123233995736766e-17 8.0
796 291 5 8.5 1.1 8.0
797 291 3 8.0 1.1 8.0
798 291 5 7.5 1.1 8.0
799 292 5 8.5 2.2 8.0
800 292 4 8.0 2.2 8.0
801 292 5 7.5 2.2 8.0
802 293 5 8.5 3.3 8.0
803 293 3 8.0 3.3 8.0
804 293 5 7.5 3.3 8.0
805 294 5 8.5 4.4 8.0
806 294 4 8.0 4.4 8.0
807 294 5 7.5 4.4 8.0
808 295 5 8.5 5.5 8.0
809 295 3 8.0 5.5 8.0
810 295 5 7.5 5.5 8.0
811 296 5 8.5 6.6 8.0
812 296 4 8.0 6.6 8.0
813 296 5 7.5 6.6 8.0
814 297 5 8.5 7.7 8.0
815 297 3 8.0 7.7 8.0
816 297 5 7.5 7.7 8.0
817 298 5 8.5 8.8 8.0
818 298 4 8.0 8.8 8.0
819 298 5 7.5 8.8 8.0
820 299 5 8.5 9.9 8.0
821 299 3 8.0 9.9 8.0
822 299 5 7.5 9.9 8.0
823 300 5 8.5 11.0 8.0
824 300 4 8.0 11.0 8.0
825 300 5 7.5 11.0 8.0

Bonds

1 1 1 2
2 1 2 3
3 1 4 5
4 1 5 6
5 2 7 8
6 2 8 9
7 1 10 11
8 1 11 12
9 2 13 14
10 2 14 15
11 1 16 17
12 1 17 18
13 2 19 20
14 2 20 21
15 1 22 23
16 1 23 24
17 2 25 26
18 2 26 27
19 1 28 29
20 1 29 30
21 2 31 32
22 2 32 33
23 3 3 4
24 3 6 7
25 3 9 10
26 3 12 13
27 3 15 16
28 3 18 19
29 3 21 22
30 3 24 25
31 3 27 28
32 3 30 31
33 1 34 35
34 1 35 36
35 1 37 38
36 1 38 39
37 2 40 41
38 2 41 42
39 1 43 44
40 1 44 45
41 2 46 47
42 2 47 48
43 1 49 50
44 1 50 51
45 2 52 53
46 2 53 54
47 1 55 56
48 1 56 57
49 2 58 59
50 2 59 60
51 1 61 62
52 1 62 63
53 2 64 65
54 2 65 66
55 3 36 37
56 3 39 40
57 3 42 43
58 3 45 46
59 3 48 49
60 3 51 52
61 3 54 55
62 3 57 58
63 3 60 61
64 3 63 64
65 1 67 68
66 1 68 69
67 1 70 71
68 1 71 72
69 2 73 74
70 2 74 75
71 1 76 77
72 1 77 78
73 2 79 80
74 2 80 81
75 1 82 83
76 1 83 84
77 2 85 86
78 2 86 87
79 1 88 89
80 1 89 90
81 2 91 92
82 2 92 93
83 1 94 95
84 1 95 96
85 2 97 98
86 2 98 99
87 3 69 70
88 3 72 73
89 3 75 76
90 3 78 79
91 3 81 82
92 3 84 85
93 3 87 88
94 3 90 91
95 3 93 94
96 3 96 97
97 1 100 101
98 1 101 102
99 1 103 104
100 1 104 105
101 2 106 107
102 2 107 108
103 1 109 110
104 1 110 111
105 2 112 113
106 2 113 114
107 1 115 116
108 1 116 117
109 2 118 119
110 2 119 120
111 1 121 122
112 1 122 123
113 2 124 125
114 2 125 126
115 1 127 128
116 1 128 129
117 2 130 131
118 2 131 132
119 3 102 103
120 3 105 106
121 3 108 109
122 3 111 112
123 3 114 115
124 3 117 118
125 3 120 121
126 3 123 124
127 3 126 127
128 3 129 130
129 1 133 134
130 1 134 135
131 1 136 137
132 1 137 138
133 2 139 140
134 2 140 141
135 1 142 143
136 1 143 144
137 2 145 146
138 2 146 147
139 1 148 149
140 1 149 150
141 2 151 152
142 2 152 153
143 1 154 155
144 1 155 156
145 2 157 158
146 2 158 159
147 1 160 161
148 1 161 162
149 2 163 164
150 2 164 165
151 3 135 136
152 3 138 139
153 3 141 142
154 3 144 145
155 3 147 148
156 3 150 151
157 3 153 154
158 3 156 157
159 3 159 160
160 3 162 163
161 1 166 167
162 1 167 168
163 1 169 170
164 1 170 171
165 2 172 173
166 2 173 174
167 1 175 176
168 1 176 177
169 2 178 179
170 2 179 180
171 1 181 182
172 1 182 183
173 2 184 185
174 2 185 186
175 1 187 188
176 1 188 189
177 2 190 191
178 2 191 192
179 1 193 194
180 1 194 195
181 2 196 197
182 2 197 198
183 3 168 169
184 3 171 172
185 3 174 175
186 3 177 178
187 3 180 181
188 3 183 184
189 3 186 187
190 3 189 190
191 3 192 193
192 3 195 196
193 1 199 200
194 1 200 201
195 1 202 203
196 1 203 204
197 2 205 206
198 2 206 207
199 1 208 209
200 1 209 210
201 2 211 212
202 2 212 213
203 1 214 215
204 1 215 216
205 2 217 218
206 2 218 219
207 1 220 221
208 1 221 222
209 2 223 224
210 2 224 225
211 1 226 227
212 1 227 228
213 2 229 230
214 2 230 231
215 3 201 202
216 3 204 205
217 3 207 208
218 3 210 211
219 3 213 214
220 3 216 217
221 3 219 220
222 3 222 223
223 3 225 226
224 3 228 229
225 1 232 233
226 1 233 234
227 1 235 236
228 1 236 237
229 2 238 239
230 2 239 240
231 1 241 242
232 1 242 243
233 2 244 245
234 2 245 246
235 1 247 248
236 1 248 249
237 2 250 251
238 2 251 252
239 1 253 254
240 1 254 255
241 2 256 257
242 2 257 258
243 1 259 260
244 1 260 261
245 2 262 263
246 2 263 264
247 3 234 235
248 3 237 238
249 3 240 241
250 3 243 244
251 3 246 247
252 3 249 250
253 3 252 253
254 3 255 256
255 3 258 259
256 3 261 262
257 1 265 266
258 1 266 267
259 1 268 269
260 1 269 270
261 2 271 272
262 2 272 273
263 1 274 275
264 1 275 276
265 2 277 278
266 2 278 279
267 1 280 281
268 1 281 282
269 2 283 284
270 2 284 285
271 1 286 287
272 1 287 288
273 2 289 290
274 2 290 291
275 1 292 293
276 1 293 294
277 2 295 296
278 2 296 297
279 3 267 268
280 3 270 271
281 3 273 274
282 3 276 277
283 3 279 280
284 3 282 283
285 3 285 286
286 3 288 289
287 3 291 292
288 3 294 295
289 1 298 299
290 1 299 300
291 1 301 302
292 1 302 303
293 2 304 305
294 2 305 306
295 1 307 308
296 1 308 309
297 2 310 311
298 2 311 312
299 1 313 314
300 1 314 315
301 2 316 317
302 2 317 318
303 1 319 320
304 1 320 321
305 2 322 323
306 2 323 324
307 1 325 326
308 1 326 327
309 2 328 329
310 2 329 330
311 3 300 301
312 3 303 304
313 3 306 307
314 3 309 310
315 3 312 313
316 3 315 316
317 3 318 319
318 3 321 322
319 3 324 325
320 3 327 328
321 1 331 332
322 1 332 333
323 1 334 335
324 1 335 336
325 2 337 338
326 2 338 339
327 1 340 341
328 1 341 342
329 2 343 344
330 2 344 345
331 1 346 347
332 1 347 348
333 2 349 350
334 2 350 351
335 1 352 353
336 1 353 354
337 2 355 356
338 2 356 357
339 1 358 359
340 1 359 360
341 2 361 362
342 2 362 363
343 3 333 334
344 3 336 337
345 3 339 340
346 3 342 343
347 3 345 346
348 3 348 349
349 3 351 352
350 3 354 355
351 3 357 358
352 3 360 361
353 1 364 365
354 1 365 366
355 1 367 368
356 1 368 369
357 2 370 371
358 2 371 372
359 1 373 374
360 1 374 375
361 2 376 377
362 2 377 378
363 1 379 380
364 1 380 381
365 2 382 383
366 2 383 384
367 1 385 386
368 1 386 387
369 2 388 389
370 2 389 390
371 1 391 392
372 1 392 393
373 2 394 395
374 2 395 396
375 3 366 367
376 3 369 370
377 3 372 373
378 3 375 376
379 3 378 379
380 3 381 382
381 3 384 385
382 3 387 388
383 3 390 391
384 3 393 394
385 1 397 398
386 1 398 399
387 1 400 401
388 1 401 402
389 2 403 404
390 2 404 405
391 1 406 407
392 1 407 408
393 2 409 410
394 2 410 411
395 1 412 413
396 1 413 414
397 2 415 416
398 2 416 417
399 1 418 419
400 1 419 420
401 2 421 422
402 2 422 423
403 1 424 425
404 1 425 426
405 2 427 428
406 2 428 429
407 3 399 400
408 3 402 403
409 3 405 406
410 3 408 409
411 3 411 412
412 3 414 415
413 3 417 418
414 3 420 421
415 3 423 424
416 3 426 427
417 1 430 431
418 1 431 432
419 1 433 434
420 1 434 435
421 2 436 437
422 2 437 438
423 1 439 440
424 1 440 441
425 2 442 443
426 2 443 444
427 1 445 446
428 1 446 447
429 2 448 449
430 2 449 450
431 1 451 452
432 1 452 453
433 2 454 455
434 2 455 456
435 1 457 458
436 1 458 459
437 2 460 461
438 2 461 462
439 3 432 433
440 3 435 436
441 3 438 439
442 3 441 442
443 3 444 445
444 3 447 448
445 3 450 451
446 3 453 454
447 3 456 457
448 3 459 460
449 1 463 464
450 1 464 465
451 1 466 467
452 1 467 468
453 2 469 470
454 2 470 471
455 1 472 473
456 1 473 474
457 2 475 476
458 2 476 477
459 1 478 479
460 1 479 480
461 2 481 482
462 2 482 483
463 1 484 485
464 1 485 486
465 2 487 488
466 2 488 489
467 1 490 491
468 1 491 492
469 2 493 494
470 2 494 495
471 3 465 466
472 3 468 469
473 3 471 472
474 3 474 475
475 3 477 478
476 3 480 481
477 3 483 484
478 3 486 487
479 3 489 490
480 3 492 493
481 1 496 497
482 1 497 498
483 1 499 500
484 1 500 501
485 2 502 503
486 2 503 504
487 1 505 506
488 1 506 507
489 2 508 509
490 2 509 510
491 1 511 512
492 1 512 513
493 2 514 515
494 2 515 516
495 1 517 518
496 1 518 519
497 2 520 521
498 2 521 522
499 1 523 524
500 1 524 525
501 2 526 527
502 2 527 528
503 3 498 499
504 3 501 502
505 3 504 505
506 3 507 508
507 3 510 511
508 3 513 514
509 3 516 517
510 3 519 520
511 3 522 523
512 3 525 526
513 1 529 530
514 1 530 531
515 1 532 533
516 1 533 534
517 2 535 536
518 2 536 537
519 1 538 539
520 1 539 540
521 2 541 542
522 2 542 543
523 1 544 545
524 1 545 546
525 2 547 548
526 2 548 549
527 1 550 551
528 1 551 552
529 2 553 554
530 2 554 555
531 1 556 557
532 1 557 558
533 2 559 560
534 2 560 561
535 3 531 532
536 3 534 535
537 3 537 538
538 3 540 541
539 3 543 544
540 3 546 547
541 3 549 550
542 3 552 553
543 3 555 556
544 3 558 559
545 1 562 563
546 1 563 564
547 1 565 566
548 1 566 567
549 2 568 569
550 2 569 570
551 1 571 572
552 1 572 573
553 2 574 575
554 2 575 576
555 1 577 578
556 1 578 579
557 2 580 581
558 2 581 582
559 1 583 584
560 1 584 585
561 2 586 587
562 2 587 588
563 1 589 590
564 1 590 591
565 2 592 593
566 2 593 594
567 3 564 565
568 3 567 568
569 3 570 571
570 3 573 574
571 3 576 577
572 3 579 580
573 3 582 583
574 3 585 586
575 3 588 589
576 3 591 592
577 1 595 596
578 1 596 597
579 1 598 599
580 1 599 600
581 2 601 602
582 2 602 603
583 1 604 605
584 1 605 606
585 2 607 608
586 2 608 609
587 1 610 611
588 1 611 612
589 2 613 614
590 2 614 615
591 1 616 617
592 1 617 618
593 2 619 620
594 2 620 621
595 1 622 623
596 1 623 624
597 2 625 626
598 2 626 627
599 3 597 598
600 3 600 601
601 3 603 604
602 3 606 607
603 3 609 610
604 3 612 613
605 3 615 616
606 3 618 619
607 3 621 622
608 3 624 625
609 1 628 629
610 1 629 630
611 1 631 632
612 1 632 633
613 2 634 635
614 2 635 636
615 1 637 638
616 1 638 639
617 2 640 641
618 2 641 642
619 1 643 644
620 1 644 645
621 2 646 647
622 2 647 648
623 1 649 650
624 1 650 651
625 2 652 653
626 2 653 654
627 1 655 656
628 1 656 657
629 2 658 659
630 2 659 660
631 3 630 631
632 3 633 634
633 3 636 637
634 3 639 640
635 3 642 643
636 3 645 646
637 3 648 649
638 3 651 652
639 3 654 655
640 3 657 658
641 1 661 662
642 1 662 663
643 1 664 665
644 1 665 666
645 2 667 668
646 2 668 669
647 1 670 671
648 1 671 672
649 2 673 674
650 2 674 675
651 1 676 677
652 1 677 678
653 2 679 680
654 2 680 681
655 1 682 683
656 1 683 684
657 2 685 686
658 2 686 687
659 1 688 689
660 1 689 690
661 2 691 692
662 2 692 693
663 3 663 664
664 3 666 667
665 3 669 670
666 3 672 673
667 3 675 676
668 3 678 679
669 3 681 682
670 3 684 685
671 3 687 688
672 3 690 691
673 1 694 695
674 1 695 696
675 1 697 698
676 1 698 699
677 2 700 701
678 2 701 702
679 1 703 704
680 1 704 705
681 2 706 707
682 2 707 708
683 1 709 710
684 1 710 711
685 2 712 713
686 2 713 714
687 1 715 716
688 1 716 717
689 2 718 719
690 2 719 720
691 1 721 722
692 1 722 723
693 2 724 725
694 2 725 726
695 3 696 697
696 3 699 700
697 3 702 703
698 3 705 706
699 3 708 709
700 3 711 712
701 3 714 715
702 3 717 718
703 3 720 721
704 3 723 724
705 1 727 728
706 1 728 729
707 1 730 731
708 1 731 732
709 2 733 734
710 2 734 735
711 1 736 737
712 1 737 738
713 2 739 740
714 2 740 741
715 1 742 743
716 1 743 744
717 2 745 746
718 2 746 747
719 1 748 749
720 1 749 750
721 2 751 752
722 2 752 753
723 1 754 755
724 1 755 756
725 2 757 758
726 2 758 759
727 3 729 730
728 3 732 733
729 3 735 736
730 3 738 739
731 3 741 742
732 3 744 745
733 3 747 748
734 3 750 751
735 3 753 754
736 3 756 757
737 1 760 761
738 1 761 762
739 1 763 764
740 1 764 765
741 2 766 767
742 2 767 768
743 1 769 770
744 1 770 771
745 2 772 773
746 2 773 774
747 1 775 776
748 1 776 777
749 2 778 779
750 2 779 780
751 1 781 782
752 1 782 783
753 2 784 785
754 2 785 786
755 1 787 788
756 1 788 789
757 2 790 791
758 2 791 792
759 3 762 763
760 3 765 766
761 3 768 769
762 3 771 772
763 3 774 775
764 3 777 778
765 3 780 781
766 3 783 784
767 3 786 787
768 3 789 790
769 1 793 794
770 1 794 795
771 1 796 797
772 1 797 798
773 2 799 800
774 2 800 801
775 1 802 803
776 1 803 804
777 2 805 806
778 2 806 807
779 1 808 809
780 1 809 810
781 2 811 812
782 2 812 813
783 1 814 815
784 1 815 816
785 2 817 818
786 2 818 819
787 1 820 821
788 1 821 822
789 2 823 824
790 2 824 825
791 3 795 796
792 3 798 799
793 3 801 802
794 3 804 805
795 3 807 808
796 3 810 811