LAMMPS Description

     1950  atoms
     1925  bonds
     1850  angles
     0  dihedrals
     0  impropers

     8  atom types
     3  bond types
     4  angle types

  -20 20 xlo xhi
  -20 20 ylo yhi
  -20 20 zlo zhi

Masses

1 1  # NP
2 0.5  # GR
3 0.5  # A
4 0.5  # B
5 0.25  # SA
6 0.25  # ACTIVE
7 0.25  # DORMANT
8 0.25  # ANCHOR

Atoms  # angle

1 2 8 1.0 -6.123233995736766e-17 0.0
2 2 2 0.0 0.0 0.0
3 2 6 -1.0 6.123233995736766e-17 0.0
4 3 5 0.5 1.1 0.0
5 3 3 0.0 1.1 0.0
6 3 5 -0.5 1.1 0.0
7 4 5 0.5 2.2 0.0
8 4 4 0.0 2.2 0.0
9 4 5 -0.5 2.2 0.0
10 5 5 0.5 3.3 0.0
11 5 3 0.0 3.3 0.0
12 5 5 -0.5 3.3 0.0
13 6 5 0.5 4.4 0.0
14 6 4 0.0 4.4 0.0
15 6 5 -0.5 4.4 0.0
16 7 5 0.5 5.5 0.0
17 7 3 0.0 5.5 0.0
18 7 5 -0.5 5.5 0.0
19 8 5 0.5 6.6 0.0
20 8 4 0.0 6.6 0.0
21 8 5 -0.5 6.6 0.0
22 9 5 0.5 7.7 0.0
23 9 3 0.0 7.7 0.0
24 9 5 -0.5 7.7 0.0
25 10 5 0.5 8.8 0.0
26 10 4 0.0 8.8 0.0
27 10 5 -0.5 8.8 0.0
28 11 5 0.5 9.9 0.0
29 11 3 0.0 9.9 0.0
30 11 5 -0.5 9.9 0.0
31 12 5 0.5 11.0 0.0
32 12 4 0.0 11.0 0.0
33 12 5 -0.5 11.0 0.0
34 13 5 0.5 12.1 0.0
35 13 3 0.0 12.1 0.0
36 13 5 -0.5 12.1 0.0
37 14 5 0.5 13.2 0.0
38 14 4 0.0 13.2 0.0
39 14 5 -0.5 13.2 0.0
40 15 5 0.5 14.3 0.0
41 15 3 0.0 14.3 0.0
42 15 5 -0.5 14.3 0.0
43 16 5 0.5 15.4 0.0
44 16 4 0.0 15.4 0.0
45 16 5 -0.5 15.4 0.0
46 17 5 0.5 16.5 0.0
47 17 3 0.0 16.5 0.0
48 17 5 -0.5 16.5 0.0
49 18 5 0.5 17.6 0.0
50 18 4 0.0 17.6 0.0
51 18 5 -0.5 17.6 0.0
52 19 5 0.5 18.7 0.0
53 19 3 0.0 18.7 0.0
54 19 5 -0.5 18.7 0.0
55 20 5 0.5 19.8 0.0
56 20 4 0.0 19.8 0.0
57 20 5 -0.5 19.8 0.0
58 21 5 0.5 20.9 0.0
59 21 3 0.0 20.9 0.0
60 21 5 -0.5 20.9 0.0
61 22 5 0.5 22.0 0.0
62 22 4 0.0 22.0 0.0
63 22 5 -0.5 22.0 0.0
64 23 5 0.5 23.1 0.0
65 23 3 0.0 23.1 0.0
66 23 5 -0.5 23.1 0.0
67 24 5 0.5 24.2 0.0
68 24 4 0.0 24.2 0.0
69 24 5 -0.5 24.2 0.0
70 25 5 0.5 25.3 0.0
71 25 3 0.0 25.3 0.0
72 25 5 -0.5 25.3 0.0
73 26 5 0.5 26.4 0.0
74 26 4 0.0 26.4 0.0
75 26 5 -0.5 26.4 0.0
76 27 5 0.5 27.5 0.0
77 27 3 0.0 27.5 0.0
78 27 5 -0.5 27.5 0.0
79 29 8 1.0 -6.123233995736766e-17 2.0
80 29 2 0.0 0.0 2.0
81 29 6 -1.0 6.123233995736766e-17 2.0
82 30 5 0.5 1.1 2.0
83 30 3 0.0 1.1 2.0
84 30 5 -0.5 1.1 2.0
85 31 5 0.5 2.2 2.0
86 31 4 0.0 2.2 2.0
87 31 5 -0.5 2.2 2.0
88 32 5 0.5 3.3 2.0
89 32 3 0.0 3.3 2.0
90 32 5 -0.5 3.3 2.0
91 33 5 0.5 4.4 2.0
92 33 4 0.0 4.4 2.0
93 33 5 -0.5 4.4 2.0
94 34 5 0.5 5.5 2.0
95 34 3 0.0 5.5 2.0
96 34 5 -0.5 5.5 2.0
97 35 5 0.5 6.6 2.0
98 35 4 0.0 6.6 2.0
99 35 5 -0.5 6.6 2.0
100 36 5 0.5 7.7 2.0
101 36 3 0.0 7.7 2.0
102 36 5 -0.5 7.7 2.0
103 37 5 0.5 8.8 2.0
104 37 4 0.0 8.8 2.0
105 37 5 -0.5 8.8 2.0
106 38 5 0.5 9.9 2.0
107 38 3 0.0 9.9 2.0
108 38 5 -0.5 9.9 2.0
109 39 5 0.5 11.0 2.0
110 39 4 0.0 11.0 2.0
111 39 5 -0.5 11.0 2.0
112 40 5 0.5 12.1 2.0
113 40 3 0.0 12.1 2.0
114 40 5 -0.5 12.1 2.0
115 41 5 0.5 13.2 2.0
116 41 4 0.0 13.2 2.0
117 41 5 -0.5 13.2 2.0
118 42 5 0.5 14.3 2.0
119 42 3 0.0 14.3 2.0
120 42 5 -0.5 14.3 2.0
121 43 5 0.5 15.4 2.0
122 43 4 0.0 15.4 2.0
123 43 5 -0.5 15.4 2.0
124 44 5 0.5 16.5 2.0
125 44 3 0.0 16.5 2.0
126 44 5 -0.5 16.5 2.0
127 45 5 0.5 17.6 2.0
128 45 4 0.0 17.6 2.0
129 45 5 -0.5 17.6 2.0
130 46 5 0.5 18.7 2.0
131 46 3 0.0 18.7 2.0
132 46 5 -0.5 18.7 2.0
133 47 5 0.5 19.8 2.0
134 47 4 0.0 19.8 2.0
135 47 5 -0.5 19.8 2.0
136 48 5 0.5 20.9 2.0
137 48 3 0.0 20.9 2.0
138 48 5 -0.5 20.9 2.0
139 49 5 0.5 22.0 2.0
140 49 4 0.0 22.0 2.0
141 49 5 -0.5 22.0 2.0
142 50 5 0.5 23.1 2.0
143 50 3 0.0 23.1 2.0
144 50 5 -0.5 23.1 2.0
145 51 5 0.5 24.2 2.0
146 51 4 0.0 24.2 2.0
147 51 5 -0.5 24.2 2.0
148 52 5 0.5 25.3 2.0
149 52 3 0.0 25.3 2.0
150 52 5 -0.5 25.3 2.0
151 53 5 0.5 26.4 2.0
152 53 4 0.0 26.4 2.0
153 53 5 -0.5 26.4 2.0
154 54 5 0.5 27.5 2.0
155 54 3 0.0 27.5 2.0
156 54 5 -0.5 27.5 2.0
157 56 8 1.0 -6.123233995736766e-17 4.0
158 56 2 0.0 0.0 4.0
159 56 6 -1.0 6.123233995736766e-17 4.0
160 57 5 0.5 1.1 4.0
161 57 3 0.0 1.1 4.0
162 57 5 -0.5 1.1 4.0
163 58 5 0.5 2.2 4.0
164 58 4 0.0 2.2 4.0
165 58 5 -0.5 2.2 4.0
166 59 5 0.5 3.3 4.0
167 59 3 0.0 3.3 4.0
168 59 5 -0.5 3.3 4.0
169 60 5 0.5 4.4 4.0
170 60 4 0.0 4.4 4.0
171 60 5 -0.5 4.4 4.0
172 61 5 0.5 5.5 4.0
173 61 3 0.0 5.5 4.0
174 61 5 -0.5 5.5 4.0
175 62 5 0.5 6.6 4.0
176 62 4 0.0 6.6 4.0
177 62 5 -0.5 6.6 4.0
178 63 5 0.5 7.7 4.0
179 63 3 0.0 7.7 4.0
180 63 5 -0.5 7.7 4.0
181 64 5 0.5 8.8 4.0
182 64 4 0.0 8.8 4.0
183 64 5 -0.5 8.8 4.0
184 65 5 0.5 9.9 4.0
185 65 3 0.0 9.9 4.0
186 65 5 -0.5 9.9 4.0
187 66 5 0.5 11.0 4.0
188 66 4 0.0 11.0 4.0
189 66 5 -0.5 11.0 4.0
190 67 5 0.5 12.1 4.0
191 67 3 0.0 12.1 4.0
192 67 5 -0.5 12.1 4.0
193 68 5 0.5 13.2 4.0
194 68 4 0.0 13.2 4.0
195 68 5 -0.5 13.2 4.0
196 69 5 0.5 14.3 4.0
197 69 3 0.0 14.3 4.0
198 69 5 -0.5 14.3 4.0
199 70 5 0.5 15.4 4.0
200 70 4 0.0 15.4 4.0
201 70 5 -0.5 15.4 4.0
202 71 5 0.5 16.5 4.0
203 71 3 0.0 16.5 4.0
204 71 5 -0.5 16.5 4.0
205 72 5 0.5 17.6 4.0
206 72 4 0.0 17.6 4.0
207 72 5 -0.5 17.6 4.0
208 73 5 0.5 18.7 4.0
209 73 3 0.0 18.7 4.0
210 73 5 -0.5 18.7 4.0
211 74 5 0.5 19.8 4.0
212 74 4 0.0 19.8 4.0
213 74 5 -0.5 19.8 4.0
214 75 5 0.5 20.9 4.0
215 75 3 0.0 20.9 4.0
216 75 5 -0.5 20.9 4.0
217 76 5 0.5 22.0 4.0
218 76 4 0.0 22.0 4.0
219 76 5 -0.5 22.0 4.0
220 77 5 0.5 23.1 4.0
221 77 3 0.0 23.1 4.0
222 77 5 -0.5 23.1 4.0
223 78 5 0.5 24.2 4.0
224 78 4 0.0 24.2 4.0
225 78 5 -0.5 24.2 4.0
226 79 5 0.5 25.3 4.0
227 79 3 0.0 25.3 4.0
228 79 5 -0.5 25.3 4.0
229 80 5 0.5 26.4 4.0
230 80 4 0.0 26.4 4.0
231 80 5 -0.5 26.4 4.0
232 81 5 0.5 27.5 4.0
233 81 3 0.0 27.5 4.0
234 81 5 -0.5 27.5 4.0
235 83 8 1.0 -6.123233995736766e-17 6.0
236 83 2 0.0 0.0 6.0
237 83 6 -1.0 6.123233995736766e-17 6.0
238 84 5 0.5 1.1 6.0
239 84 3 0.0 1.1 6.0
240 84 5 -0.5 1.1 6.0
241 85 5 0.5 2.2 6.0
242 85 4 0.0 2.2 6.0
243 85 5 -0.5 2.2 6.0
244 86 5 0.5 3.3 6.0
245 86 3 0.0 3.3 6.0
246 86 5 -0.5 3.3 6.0
247 87 5 0.5 4.4 6.0
248 87 4 0.0 4.4 6.0
249 87 5 -0.5 4.4 6.0
250 88 5 0.5 5.5 6.0
251 88 3 0.0 5.5 6.0
252 88 5 -0.5 5.5 6.0
253 89 5 0.5 6.6 6.0
254 89 4 0.0 6.6 6.0
255 89 5 -0.5 6.6 6.0
256 90 5 0.5 7.7 6.0
257 90 3 0.0 7.7 6.0
258 90 5 -0.5 7.7 6.0
259 91 5 0.5 8.8 6.0
260 91 4 0.0 8.8 6.0
261 91 5 -0.5 8.8 6.0
262 92 5 0.5 9.9 6.0
263 92 3 0.0 9.9 6.0
264 92 5 -0.5 9.9 6.0
265 93 5 0.5 11.0 6.0
266 93 4 0.0 11.0 6.0
267 93 5 -0.5 11.0 6.0
268 94 5 0.5 12.1 6.0
269 94 3 0.0 12.1 6.0
270 94 5 -0.5 12.1 6.0
271 95 5 0.5 13.2 6.0
272 95 4 0.0 13.2 6.0
273 95 5 -0.5 13.2 6.0
274 96 5 0.5 14.3 6.0
275 96 3 0.0 14.3 6.0
276 96 5 -0.5 14.3 6.0
277 97 5 0.5 15.4 6.0
278 97 4 0.0 15.4 6.0
279 97 5 -0.5 15.4 6.0
280 98 5 0.5 16.5 6.0
281 98 3 0.0 16.5 6.0
282 98 5 -0.5 16.5 6.0
283 99 5 0.5 17.6 6.0
284 99 4 0.0 17.6 6.0
285 99 5 -0.5 17.6 6.0
286 100 5 0.5 18.7 6.0
287 100 3 0.0 18.7 6.0
288 100 5 -0.5 18.7 6.0
289 101 5 0.5 19.8 6.0
290 101 4 0.0 19.8 6.0
291 101 5 -0.5 19.8 6.0
292 102 5 0.5 20.9 6.0
293 102 3 0.0 20.9 6.0
294 102 5 -0.5 20.9 6.0
295 103 5 0.5 22.0 6.0
296 103 4 0.0 22.0 6.0
297 103 5 -0.5 22.0 6.0
298 104 5 0.5 23.1 6.0
299 104 3 0.0 23.1 6.0
300 104 5 -0.5 23.1 6.0
301 105 5 0.5 24.2 6.0
302 105 4 0.0 24.2 6.0
303 105 5 -0.5 24.2 6.0
304 106 5 0.5 25.3 6.0
305 106 3 0.0 25.3 6.0
306 106 5 -0.5 25.3 6.0
307 107 5 0.5 26.4 6.0
308 107 4 0.0 26.4 6.0
309 107 5 -0.5 26.4 6.0
310 108 5 0.5 27.5 6.0
311 108 3 0.0 27.5 6.0
312 108 5 -0.5 27.5 6.0
313 110 8 1.0 -6.123233995736766e-17 8.0
314 110 2 0.0 0.0 8.0
315 110 6 -1.0 6.123233995736766e-17 8.0
316 111 5 0.5 1.1 8.0
317 111 3 0.0 1.1 8.0
318 111 5 -0.5 1.1 8.0
319 112 5 0.5 2.2 8.0
320 112 4 0.0 2.2 8.0
321 112 5 -0.5 2.2 8.0
322 113 5 0.5 3.3 8.0
323 113 3 0.0 3.3 8.0
324 113 5 -0.5 3.3 8.0
325 114 5 0.5 4.4 8.0
326 114 4 0.0 4.4 8.0
327 114 5 -0.5 4.4 8.0
328 115 5 0.5 5.5 8.0
329 115 3 0.0 5.5 8.0
330 115 5 -0.5 5.5 8.0
331 116 5 0.5 6.6 8.0
332 116 4 0.0 6.6 8.0
333 116 5 -0.5 6.6 8.0
334 117 5 0.5 7.7 8.0
335 117 3 0.0 7.7 8.0
336 117 5 -0.5 7.7 8.0
337 118 5 0.5 8.8 8.0
338 118 4 0.0 8.8 8.0
339 118 5 -0.5 8.8 8.0
340 119 5 0.5 9.9 8.0
341 119 3 0.0 9.9 8.0
342 119 5 -0.5 9.9 8.0
343 120 5 0.5 11.0 8.0
344 120 4 0.0 11.0 8.0
345 120 5 -0.5 11.0 8.0
346 121 5 0.5 12.1 8.0
347 121 3 0.0 12.1 8.0
348 121 5 -0.5 12.1 8.0
349 122 5 0.5 13.2 8.0
350 122 4 0.0 13.2 8.0
351 122 5 -0.5 13.2 8.0
352 123 5 0.5 14.3 8.0
353 123 3 0.0 14.3 8.0
354 123 5 -0.5 14.3 8.0
355 124 5 0.5 15.4 8.0
356 124 4 0.0 15.4 8.0
357 124 5 -0.5 15.4 8.0
358 125 5 0.5 16.5 8.0
359 125 3 0.0 16.5 8.0
360 125 5 -0.5 16.5 8.0
361 126 5 0.5 17.6 8.0
362 126 4 0.0 17.6 8.0
363 126 5 -0.5 17.6 8.0
364 127 5 0.5 18.7 8.0
365 127 3 0.0 18.7 8.0
366 127 5 -0.5 18.7 8.0
367 128 5 0.5 19.8 8.0
368 128 4 0.0 19.8 8.0
369 128 5 -0.5 19.8 8.0
370 129 5 0.5 20.9 8.0
371 129 3 0.0 20.9 8.0
372 129 5 -0.5 20.9 8.0
373 130 5 0.5 22.0 8.0
374 130 4 0.0 22.0 8.0
375 130 5 -0.5 22.0 8.0
376 131 5 0.5 23.1 8.0
377 131 3 0.0 23.1 8.0
378 131 5 -0.5 23.1 8.0
379 132 5 0.5 24.2 8.0
380 132 4 0.0 24.2 8.0
381 132 5 -0.5 24.2 8.0
382 133 5 0.5 25.3 8.0
383 133 3 0.0 25.3 8.0
384 133 5 -0.5 25.3 8.0
385 134 5 0.5 26.4 8.0
386 134 4 0.0 26.4 8.0
387 134 5 -0.5 26.4 8.0
388 135 5 0.5 27.5 8.0
389 135 3 0.0 27.5 8.0
390 135 5 -0.5 27.5 8.0
391 137 8 3.0 -6.123233995736766e-17 0.0
392 137 2 2.0 0.0 0.0
393 137 6 1.0 6.123233995736766e-17 0.0
394 138 5 2.5 1.1 0.0
395 138 3 2.0 1.1 0.0
396 138 5 1.5 1.1 0.0
397 139 5 2.5 2.2 0.0
398 139 4 2.0 2.2 0.0
399 139 5 1.5 2.2 0.0
400 140 5 2.5 3.3 0.0
401 140 3 2.0 3.3 0.0
402 140 5 1.5 3.3 0.0
403 141 5 2.5 4.4 0.0
404 141 4 2.0 4.4 0.0
405 141 5 1.5 4.4 0.0
406 142 5 2.5 5.5 0.0
407 142 3 2.0 5.5 0.0
408 142 5 1.5 5.5 0.0
409 143 5 2.5 6.6 0.0
410 143 4 2.0 6.6 0.0
411 143 5 1.5 6.6 0.0
412 144 5 2.5 7.7 0.0
413 144 3 2.0 7.7 0.0
414 144 5 1.5 7.7 0.0
415 145 5 2.5 8.8 0.0
416 145 4 2.0 8.8 0.0
417 145 5 1.5 8.8 0.0
418 146 5 2.5 9.9 0.0
419 146 3 2.0 9.9 0.0
420 146 5 1.5 9.9 0.0
421 147 5 2.5 11.0 0.0
422 147 4 2.0 11.0 0.0
423 147 5 1.5 11.0 0.0
424 148 5 2.5 12.1 0.0
425 148 3 2.0 12.1 0.0
426 148 5 1.5 12.1 0.0
427 149 5 2.5 13.2 0.0
428 149 4 2.0 13.2 0.0
429 149 5 1.5 13.2 0.0
430 150 5 2.5 14.3 0.0
431 150 3 2.0 14.3 0.0
432 150 5 1.5 14.3 0.0
433 151 5 2.5 15.4 0.0
434 151 4 2.0 15.4 0.0
435 151 5 1.5 15.4 0.0
436 152 5 2.5 16.5 0.0
437 152 3 2.0 16.5 0.0
438 152 5 1.5 16.5 0.0
439 153 5 2.5 17.6 0.0
440 153 4 2.0 17.6 0.0
441 153 5 1.5 17.6 0.0
442 154 5 2.5 18.7 0.0
443 154 3 2.0 18.7 0.0
444 154 5 1.5 18.7 0.0
445 155 5 2.5 19.8 0.0
446 155 4 2.0 19.8 0.0
447 155 5 1.5 19.8 0.0
448 156 5 2.5 20.9 0.0
449 156 3 2.0 20.9 0.0
450 156 5 1.5 20.9 0.0
451 157 5 2.5 22.0 0.0
452 157 4 2.0 22.0 0.0
453 157 5 1.5 22.0 0.0
454 158 5 2.5 23.1 0.0
455 158 3 2.0 23.1 0.0
456 158 5 1.5 23.1 0.0
457 159 5 2.5 24.2 0.0
458 159 4 2.0 24.2 0.0
459 159 5 1.5 24.2 0.0
460 160 5 2.5 25.3 0.0
461 160 3 2.0 25.3 0.0
462 160 5 1.5 25.3 0.0
463 161 5 2.5 26.4 0.0
464 161 4 2.0 26.4 0.0
465 161 5 1.5 26.4 0.0
466 162 5 2.5 27.5 0.0
467 162 3 2.0 27.5 0.0
468 162 5 1.5 27.5 0.0
469 164 8 3.0 -6.123233995736766e-17 2.0
470 164 2 2.0 0.0 2.0
471 164 6 1.0 6.123233995736766e-17 2.0
472 165 5 2.5 1.1 2.0
473 165 3 2.0 1.1 2.0
474 165 5 1.5 1.1 2.0
475 166 5 2.5 2.2 2.0
476 166 4 2.0 2.2 2.0
477 166 5 1.5 2.2 2.0
478 167 5 2.5 3.3 2.0
479 167 3 2.0 3.3 2.0
480 167 5 1.5 3.3 2.0
481 168 5 2.5 4.4 2.0
482 168 4 2.0 4.4 2.0
483 168 5 1.5 4.4 2.0
484 169 5 2.5 5.5 2.0
485 169 3 2.0 5.5 2.0
486 169 5 1.5 5.5 2.0
487 170 5 2.5 6.6 2.0
488 170 4 2.0 6.6 2.0
489 170 5 1.5 6.6 2.0
490 171 5 2.5 7.7 2.0
491 171 3 2.0 7.7 2.0
492 171 5 1.5 7.7 2.0
493 172 5 2.5 8.8 2.0
494 172 4 2.0 8.8 2.0
495 172 5 1.5 8.8 2.0
496 173 5 2.5 9.9 2.0
497 173 3 2.0 9.9 2.0
498 173 5 1.5 9.9 2.0
499 174 5 2.5 11.0 2.0
500 174 4 2.0 11.0 2.0
501 174 5 1.5 11.0 2.0
502 175 5 2.5 12.1 2.0
503 175 3 2.0 12.1 2.0
504 175 5 1.5 12.1 2.0
505 176 5 2.5 13.2 2.0
506 176 4 2.0 13.2 2.0
507 176 5 1.5 13.2 2.0
508 177 5 2.5 14.3 2.0
509 177 3 2.0 14.3 2.0
510 177 5 1.5 14.3 2.0
511 178 5 2.5 15.4 2.0
512 178 4 2.0 15.4 2.0
513 178 5 1.5 15.4 2.0
514 179 5 2.5 16.5 2.0
515 179 3 2.0 16.5 2.0
516 179 5 1.5 16.5 2.0
517 180 5 2.5 17.6 2.0
518 180 4 2.0 17.6 2.0
519 180 5 1.5 17.6 2.0
520 181 5 2.5 18.7 2.0
521 181 3 2.0 18.7 2.0
522 181 5 1.5 18.7 2.0
523 182 5 2.5 19.8 2.0
524 182 4 2.0 19.8 2.0
525 182 5 1.5 19.8 2.0
526 183 5 2.5 20.9 2.0
527 183 3 2.0 20.9 2.0
528 183 5 1.5 20.9 2.0
529 184 5 2.5 22.0 2.0
530 184 4 2.0 22.0 2.0
531 184 5 1.5 22.0 2.0
532 185 5 2.5 23.1 2.0
533 185 3 2.0 23.1 2.0
534 185 5 1.5 23.1 2.0
535 186 5 2.5 24.2 2.0
536 186 4 2.0 24.2 2.0
537 186 5 1.5 24.2 2.0
538 187 5 2.5 25.3 2.0
539 187 3 2.0 25.3 2.0
540 187 5 1.5 25.3 2.0
541 188 5 2.5 26.4 2.0
542 188 4 2.0 26.4 2.0
543 188 5 1.5 26.4 2.0
544 189 5 2.5 27.5 2.0
545 189 3 2.0 27.5 2.0
546 189 5 1.5 27.5 2.0
547 191 8 3.0 -6.123233995736766e-17 4.0
548 191 2 2.0 0.0 4.0
549 191 6 1.0 6.123233995736766e-17 4.0
550 192 5 2.5 1.1 4.0
551 192 3 2.0 1.1 4.0
552 192 5 1.5 1.1 4.0
553 193 5 2.5 2.2 4.0
554 193 4 2.0 2.2 4.0
555 193 5 1.5 2.2 4.0
556 194 5 2.5 3.3 4.0
557 194 3 2.0 3.3 4.0
558 194 5 1.5 3.3 4.0
559 195 5 2.5 4.4 4.0
560 195 4 2.0 4.4 4.0
561 195 5 1.5 4.4 4.0
562 196 5 2.5 5.5 4.0
563 196 3 2.0 5.5 4.0
564 196 5 1.5 5.5 4.0
565 197 5 2.5 6.6 4.0
566 197 4 2.0 6.6 4.0
567 197 5 1.5 6.6 4.0
568 198 5 2.5 7.7 4.0
569 198 3 2.0 7.7 4.0
570 198 5 1.5 7.7 4.0
571 199 5 2.5 8.8 4.0
572 199 4 2.0 8.8 4.0
573 199 5 1.5 8.8 4.0
574 200 5 2.5 9.9 4.0
575 200 3 2.0 9.9 4.0
576 200 5 1.5 9.9 4.0
577 201 5 2.5 11.0 4.0
578 201 4 2.0 11.0 4.0
579 201 5 1.5 11.0 4.0
580 202 5 2.5 12.1 4.0
581 202 3 2.0 12.1 4.0
582 202 5 1.5 12.1 4.0
583 203 5 2.5 13.2 4.0
584 203 4 2.0 13.2 4.0
585 203 5 1.5 13.2 4.0
586 204 5 2.5 14.3 4.0
587 204 3 2.0 14.3 4.0
588 204 5 1.5 14.3 4.0
589 205 5 2.5 15.4 4.0
590 205 4 2.0 15.4 4.0
591 205 5 1.5 15.4 4.0
592 206 5 2.5 16.5 4.0
593 206 3 2.0 16.5 4.0
594 206 5 1.5 16.5 4.0
595 207 5 2.5 17.6 4.0
596 207 4 2.0 17.6 4.0
597 207 5 1.5 17.6 4.0
598 208 5 2.5 18.7 4.0
599 208 3 2.0 18.7 4.0
600 208 5 1.5 18.7 4.0
601 209 5 2.5 19.8 4.0
602 209 4 2.0 19.8 4.0
603 209 5 1.5 19.8 4.0
604 210 5 2.5 20.9 4.0
605 210 3 2.0 20.9 4.0
606 210 5 1.5 20.9 4.0
607 211 5 2.5 22.0 4.0
608 211 4 2.0 22.0 4.0
609 211 5 1.5 22.0 4.0
610 212 5 2.5 23.1 4.0
611 212 3 2.0 23.1 4.0
612 212 5 1.5 23.1 4.0
613 213 5 2.5 24.2 4.0
614 213 4 2.0 24.2 4.0
615 213 5 1.5 24.2 4.0
616 214 5 2.5 25.3 4.0
617 214 3 2.0 25.3 4.0
618 214 5 1.5 25.3 4.0
619 215 5 2.5 26.4 4.0
620 215 4 2.0 26.4 4.0
621 215 5 1.5 26.4 4.0
622 216 5 2.5 27.5 4.0
623 216 3 2.0 27.5 4.0
624 216 5 1.5 27.5 4.0
625 218 8 3.0 -6.123233995736766e-17 6.0
626 218 2 2.0 0.0 6.0
627 218 6 1.0 6.123233995736766e-17 6.0
628 219 5 2.5 1.1 6.0
629 219 3 2.0 1.1 6.0
630 219 5 1.5 1.1 6.0
631 220 5 2.5 2.2 6.0
632 220 4 2.0 2.2 6.0
633 220 5 1.5 2.2 6.0
634 221 5 2.5 3.3 6.0
635 221 3 2.0 3.3 6.0
636 221 5 1.5 3.3 6.0
637 222 5 2.5 4.4 6.0
638 222 4 2.0 4.4 6.0
639 222 5 1.5 4.4 6.0
640 223 5 2.5 5.5 6.0
641 223 3 2.0 5.5 6.0
642 223 5 1.5 5.5 6.0
643 224 5 2.5 6.6 6.0
644 224 4 2.0 6.6 6.0
645 224 5 1.5 6.6 6.0
646 225 5 2.5 7.7 6.0
647 225 3 2.0 7.7 6.0
648 225 5 1.5 7.7 6.0
649 226 5 2.5 8.8 6.0
650 226 4 2.0 8.8 6.0
651 226 5 1.5 8.8 6.0
652 227 5 2.5 9.9 6.0
653 227 3 2.0 9.9 6.0
654 227 5 1.5 9.9 6.0
655 228 5 2.5 11.0 6.0
656 228 4 2.0 11.0 6.0
657 228 5 1.5 11.0 6.0
658 229 5 2.5 12.1 6.0
659 229 3 2.0 12.1 6.0
660 229 5 1.5 12.1 6.0
661 230 5 2.5 13.2 6.0
662 230 4 2.0 13.2 6.0
663 230 5 1.5 13.2 6.0
664 231 5 2.5 14.3 6.0
665 231 3 2.0 14.3 6.0
666 231 5 1.5 14.3 6.0
667 232 5 2.5 15.4 6.0
668 232 4 2.0 15.4 6.0
669 232 5 1.5 15.4 6.0
670 233 5 2.5 16.5 6.0
671 233 3 2.0 16.5 6.0
672 233 5 1.5 16.5 6.0
673 234 5 2.5 17.6 6.0
674 234 4 2.0 17.6 6.0
675 234 5 1.5 17.6 6.0
676 235 5 2.5 18.7 6.0
677 235 3 2.0 18.7 6.0
678 235 5 1.5 18.7 6.0
679 236 5 2.5 19.8 6.0
680 236 4 2.0 19.8 6.0
681 236 5 1.5 19.8 6.0
682 237 5 2.5 20.9 6.0
683 237 3 2.0 20.9 6.0
684 237 5 1.5 20.9 6.0
685 238 5 2.5 22.0 6.0
686 238 4 2.0 22.0 6.0
687 238 5 1.5 22.0 6.0
688 239 5 2.5 23.1 6.0
689 239 3 2.0 23.1 6.0
690 239 5 1.5 23.1 6.0
691 240 5 2.5 24.2 6.0
692 240 4 2.0 24.2 6.0
693 240 5 1.5 24.2 6.0
694 241 5 2.5 25.3 6.0
695 241 3 2.0 25.3 6.0
696 241 5 1.5 25.3 6.0
697 242 5 2.5 26.4 6.0
698 242 4 2.0 26.4 6.0
699 242 5 1.5 26.4 6.0
700 243 5 2.5 27.5 6.0
701 243 3 2.0 27.5 6.0
702 243 5 1.5 27.5 6.0
703 245 8 3.0 -6.123233995736766e-17 8.0
704 245 2 2.0 0.0 8.0
705 245 6 1.0 6.123233995736766e-17 8.0
706 246 5 2.5 1.1 8.0
707 246 3 2.0 1.1 8.0
708 246 5 1.5 1.1 8.0
709 247 5 2.5 2.2 8.0
710 247 4 2.0 2.2 8.0
711 247 5 1.5 2.2 8.0
712 248 5 2.5 3.3 8.0
713 248 3 2.0 3.3 8.0
714 248 5 1.5 3.3 8.0
715 249 5 2.5 4.4 8.0
716 249 4 2.0 4.4 8.0
717 249 5 1.5 4.4 8.0
718 250 5 2.5 5.5 8.0
719 250 3 2.0 5.5 8.0
720 250 5 1.5 5.5 8.0
721 251 5 2.5 6.6 8.0
722 251 4 2.0 6.6 8.0
723 251 5 1.5 6.6 8.0
724 252 5 2.5 7.7 8.0
725 252 3 2.0 7.7 8.0
726 252 5 1.5 7.7 8.0
727 253 5 2.5 8.8 8.0
728 253 4 2.0 8.8 8.0
729 253 5 1.5 8.8 8.0
730 254 5 2.5 9.9 8.0
731 254 3 2.0 9.9 8.0
732 254 5 1.5 9.9 8.0
733 255 5 2.5 11.0 8.0
734 255 4 2.0 11.0 8.0
735 255 5 1.5 11.0 8.0
736 256 5 2.5 12.1 8.0
737 256 3 2.0 12.1 8.0
738 256 5 1.5 12.1 8.0
739 257 5 2.5 13.2 8.0
740 257 4 2.0 13.2 8.0
741 257 5 1.5 13.2 8.0
742 258 5 2.5 14.3 8.0
743 258 3 2.0 14.3 8.0
744 258 5 1.5 14.3 8.0
745 259 5 2.5 15.4 8.0
746 259 4 2.0 15.4 8.0
747 259 5 1.5 15.4 8.0
748 260 5 2.5 16.5 8.0
749 260 3 2.0 16.5 8.0
750 260 5 1.5 16.5 8.0
751 261 5 2.5 17.6 8.0
752 261 4 2.0 17.6 8.0
753 261 5 1.5 17.6 8.0
754 262 5 2.5 18.7 8.0
755 262 3 2.0 18.7 8.0
756 262 5 1.5 18.7 8.0
757 263 5 2.5 19.8 8.0
758 263 4 2.0 19.8 8.0
759 263 5 1.5 19.8 8.0
760 264 5 2.5 20.9 8.0
761 264 3 2.0 20.9 8.0
762 264 5 1.5 20.9 8.0
763 265 5 2.5 22.0 8.0
764 265 4 2.0 22.0 8.0
765 265 5 1.5 22.0 8.0
766 266 5 2.5 23.1 8.0
767 266 3 2.0 23.1 8.0
768 266 5 1.5 23.1 8.0
769 267 5 2.5 24.2 8.0
770 267 4 2.0 24.2 8.0
771 267 5 1.5 24.2 8.0
772 268 5 2.5 25.3 8.0
773 268 3 2.0 25.3 8.0
774 268 5 1.5 25.3 8.0
775 269 5 2.5 26.4 8.0
776 269 4 2.0 26.4 8.0
777 269 5 1.5 26.4 8.0
778 270 5 2.5 27.5 8.0
779 270 3 2.0 27.5 8.0
780 270 5 1.5 27.5 8.0
781 272 8 5.0 -6.123233995736766e-17 0.0
782 272 2 4.0 0.0 0.0
783 272 6 3.0 6.123233995736766e-17 0.0
784 273 5 4.5 1.1 0.0
785 273 3 4.0 1.1 0.0
786 273 5 3.5 1.1 0.0
787 274 5 4.5 2.2 0.0
788 274 4 4.0 2.2 0.0
789 274 5 3.5 2.2 0.0
790 275 5 4.5 3.3 0.0
791 275 3 4.0 3.3 0.0
792 275 5 3.5 3.3 0.0
793 276 5 4.5 4.4 0.0
794 276 4 4.0 4.4 0.0
795 276 5 3.5 4.4 0.0
796 277 5 4.5 5.5 0.0
797 277 3 4.0 5.5 0.0
798 277 5 3.5 5.5 0.0
799 278 5 4.5 6.6 0.0
800 278 4 4.0 6.6 0.0
801 278 5 3.5 6.6 0.0
802 279 5 4.5 7.7 0.0
803 279 3 4.0 7.7 0.0
804 279 5 3.5 7.7 0.0
805 280 5 4.5 8.8 0.0
806 280 4 4.0 8.8 0.0
807 280 5 3.5 8.8 0.0
808 281 5 4.5 9.9 0.0
809 281 3 4.0 9.9 0.0
810 281 5 3.5 9.9 0.0
811 282 5 4.5 11.0 0.0
812 282 4 4.0 11.0 0.0
813 282 5 3.5 11.0 0.0
814 283 5 4.5 12.1 0.0
815 283 3 4.0 12.1 0.0
816 283 5 3.5 12.1 0.0
817 284 5 4.5 13.2 0.0
818 284 4 4.0 13.2 0.0
819 284 5 3.5 13.2 0.0
820 285 5 4.5 14.3 0.0
821 285 3 4.0 14.3 0.0
822 285 5 3.5 14.3 0.0
823 286 5 4.5 15.4 0.0
824 286 4 4.0 15.4 0.0
825 286 5 3.5 15.4 0.0
826 287 5 4.5 16.5 0.0
827 287 3 4.0 16.5 0.0
828 287 5 3.5 16.5 0.0
829 288 5 4.5 17.6 0.0
830 288 4 4.0 17.6 0.0
831 288 5 3.5 17.6 0.0
832 289 5 4.5 18.7 0.0
833 289 3 4.0 18.7 0.0
834 289 5 3.5 18.7 0.0
835 290 5 4.5 19.8 0.0
836 290 4 4.0 19.8 0.0
837 290 5 3.5 19.8 0.0
838 291 5 4.5 20.9 0.0
839 291 3 4.0 20.9 0.0
840 291 5 3.5 20.9 0.0
841 292 5 4.5 22.0 0.0
842 292 4 4.0 22.0 0.0
843 292 5 3.5 22.0 0.0
844 293 5 4.5 23.1 0.0
845 293 3 4.0 23.1 0.0
846 293 5 3.5 23.1 0.0
847 294 5 4.5 24.2 0.0
848 294 4 4.0 24.2 0.0
849 294 5 3.5 24.2 0.0
850 295 5 4.5 25.3 0.0
851 295 3 4.0 25.3 0.0
852 295 5 3.5 25.3 0.0
853 296 5 4.5 26.4 0.0
854 296 4 4.0 26.4 0.0
855 296 5 3.5 26.4 0.0
856 297 5 4.5 27.5 0.0
857 297 3 4.0 27.5 0.0
858 297 5 3.5 27.5 0.0
859 299 8 5.0 -6.123233995736766e-17 2.0
860 299 2 4.0 0.0 2.0
861 299 6 3.0 6.123233995736766e-17 2.0
862 300 5 4.5 1.1 2.0
863 300 3 4.0 1.1 2.0
864 300 5 3.5 1.1 2.0
865 301 5 4.5 2.2 2.0
866 301 4 4.0 2.2 2.0
867 301 5 3.5 2.2 2.0
868 302 5 4.5 3.3 2.0
869 302 3 4.0 3.3 2.0
870 302 5 3.5 3.3 2.0
871 303 5 4.5 4.4 2.0
872 303 4 4.0 4.4 2.0
873 303 5 3.5 4.4 2.0
874 304 5 4.5 5.5 2.0
875 304 3 4.0 5.5 2.0
876 304 5 3.5 5.5 2.0
877 305 5 4.5 6.6 2.0
878 305 4 4.0 6.6 2.0
879 305 5 3.5 6.6 2.0
880 306 5 4.5 7.7 2.0
881 306 3 4.0 7.7 2.0
882 306 5 3.5 7.7 2.0
883 307 5 4.5 8.8 2.0
884 307 4 4.0 8.8 2.0
885 307 5 3.5 8.8 2.0
886 308 5 4.5 9.9 2.0
887 308 3 4.0 9.9 2.0
888 308 5 3.5 9.9 2.0
889 309 5 4.5 11.0 2.0
890 309 4 4.0 11.0 2.0
891 309 5 3.5 11.0 2.0
892 310 5 4.5 12.1 2.0
893 310 3 4.0 12.1 2.0
894 310 5 3.5 12.1 2.0
895 311 5 4.5 13.2 2.0
896 311 4 4.0 13.2 2.0
897 311 5 3.5 13.2 2.0
898 312 5 4.5 14.3 2.0
899 312 3 4.0 14.3 2.0
900 312 5 3.5 14.3 2.0
901 313 5 4.5 15.4 2.0
902 313 4 4.0 15.4 2.0
903 313 5 3.5 15.4 2.0
904 314 5 4.5 16.5 2.0
905 314 3 4.0 16.5 2.0
906 314 5 3.5 16.5 2.0
907 315 5 4.5 17.6 2.0
908 315 4 4.0 17.6 2.0
909 315 5 3.5 17.6 2.0
910 316 5 4.5 18.7 2.0
911 316 3 4.0 18.7 2.0
912 316 5 3.5 18.7 2.0
913 317 5 4.5 19.8 2.0
914 317 4 4.0 19.8 2.0
915 317 5 3.5 19.8 2.0
916 318 5 4.5 20.9 2.0
917 318 3 4.0 20.9 2.0
918 318 5 3.5 20.9 2.0
919 319 5 4.5 22.0 2.0
920 319 4 4.0 22.0 2.0
921 319 5 3.5 22.0 2.0
922 320 5 4.5 23.1 2.0
923 320 3 4.0 23.1 2.0
924 320 5 3.5 23.1 2.0
925 321 5 4.5 24.2 2.0
926 321 4 4.0 24.2 2.0
927 321 5 3.5 24.2 2.0
928 322 5 4.5 25.3 2.0
929 322 3 4.0 25.3 2.0
930 322 5 3.5 25.3 2.0
931 323 5 4.5 26.4 2.0
932 323 4 4.0 26.4 2.0
933 323 5 3.5 26.4 2.0
934 324 5 4.5 27.5 2.0
935 324 3 4.0 27.5 2.0
936 324 5 3.5 27.5 2.0
937 326 8 5.0 -6.123233995736766e-17 4.0
938 326 2 4.0 0.0 4.0
939 326 6 3.0 6.123233995736766e-17 4.0
940 327 5 4.5 1.1 4.0
941 327 3 4.0 1.1 4.0
942 327 5 3.5 1.1 4.0
943 328 5 4.5 2.2 4.0
944 328 4 4.0 2.2 4.0
945 328 5 3.5 2.2 4.0
946 329 5 4.5 3.3 4.0
947 329 3 4.0 3.3 4.0
948 329 5 3.5 3.3 4.0
949 330 5 4.5 4.4 4.0
950 330 4 4.0 4.4 4.0
951 330 5 3.5 4.4 4.0
952 331 5 4.5 5.5 4.0
953 331 3 4.0 5.5 4.0
954 331 5 3.5 5.5 4.0
955 332 5 4.5 6.6 4.0
956 332 4 4.0 6.6 4.0
957 332 5 3.5 6.6 4.0
958 333 5 4.5 7.7 4.0
959 333 3 4.0 7.7 4.0
960 333 5 3.5 7.7 4.0
961 334 5 4.5 8.8 4.0
962 334 4 4.0 8.8 4.0
963 334 5 3.5 8.8 4.0
964 335 5 4.5 9.9 4.0
965 335 3 4.0 9.9 4.0
966 335 5 3.5 9.9 4.0
967 336 5 4.5 11.0 4.0
968 336 4 4.0 11.0 4.0
969 336 5 3.5 11.0 4.0
970 337 5 4.5 12.1 4.0
971 337 3 4.0 12.1 4.0
972 337 5 3.5 12.1 4.0
973 338 5 4.5 13.2 4.0
974 338 4 4.0 13.2 4.0
975 338 5 3.5 13.2 4.0
976 339 5 4.5 14.3 4.0
977 339 3 4.0 14.3 4.0
978 339 5 3.5 14.3 4.0
979 340 5 4.5 15.4 4.0
980 340 4 4.0 15.4 4.0
981 340 5 3.5 15.4 4.0
982 341 5 4.5 16.5 4.0
983 341 3 4.0 16.5 4.0
984 341 5 3.5 16.5 4.0
985 342 5 4.5 17.6 4.0
986 342 4 4.0 17.6 4.0
987 342 5 3.5 17.6 4.0
988 343 5 4.5 18.7 4.0
989 343 3 4.0 18.7 4.0
990 343 5 3.5 18.7 4.0
991 344 5 4.5 19.8 4.0
992 344 4 4.0 19.8 4.0
993 344 5 3.5 19.8 4.0
994 345 5 4.5 20.9 4.0
995 345 3 4.0 20.9 4.0
996 345 5 3.5 20.9 4.0
997 346 5 4.5 22.0 4.0
998 346 4 4.0 22.0 4.0
999 346 5 3.5 22.0 4.0
1000 347 5 4.5 23.1 4.0
1001 347 3 4.0 23.1 4.0
1002 347 5 3.5 23.1 4.0
1003 348 5 4.5 24.2 4.0
1004 348 4 4.0 24.2 4.0
1005 348 5 3.5 24.2 4.0
1006 349 5 4.5 25.3 4.0
1007 349 3 4.0 25.3 4.0
1008 349 5 3.5 25.3 4.0
1009 350 5 4.5 26.4 4.0
1010 350 4 4.0 26.4 4.0
1011 350 5 3.5 26.4 4.0
1012 351 5 4.5 27.5 4.0
1013 351 3 4.0 27.5 4.0
1014 351 5 3.5 27.5 4.0
1015 353 8 5.0 -6.123233995736766e-17 6.0
1016 353 2 4.0 0.0 6.0
1017 353 6 3.0 6.123233995736766e-17 6.0
1018 354 5 4.5 1.1 6.0
1019 354 3 4.0 1.1 6.0
1020 354 5 3.5 1.1 6.0
1021 355 5 4.5 2.2 6.0
1022 355 4 4.0 2.2 6.0
1023 355 5 3.5 2.2 6.0
1024 356 5 4.5 3.3 6.0
1025 356 3 4.0 3.3 6.0
1026 356 5 3.5 3.3 6.0
1027 357 5 4.5 4.4 6.0
1028 357 4 4.0 4.4 6.0
1029 357 5 3.5 4.4 6.0
1030 358 5 4.5 5.5 6.0
1031 358 3 4.0 5.5 6.0
1032 358 5 3.5 5.5 6.0
1033 359 5 4.5 6.6 6.0
1034 359 4 4.0 6.6 6.0
1035 359 5 3.5 6.6 6.0
1036 360 5 4.5 7.7 6.0
1037 360 3 4.0 7.7 6.0
1038 360 5 3.5 7.7 6.0
1039 361 5 4.5 8.8 6.0
1040 361 4 4.0 8.8 6.0
1041 361 5 3.5 8.8 6.0
1042 362 5 4.5 9.9 6.0
1043 362 3 4.0 9.9 6.0
1044 362 5 3.5 9.9 6.0
1045 363 5 4.5 11.0 6.0
1046 363 4 4.0 11.0 6.0
1047 363 5 3.5 11.0 6.0
1048 364 5 4.5 12.1 6.0
1049 364 3 4.0 12.1 6.0
1050 364 5 3.5 12.1 6.0
1051 365 5 4.5 13.2 6.0
1052 365 4 4.0 13.2 6.0
1053 365 5 3.5 13.2 6.0
1054 366 5 4.5 14.3 6.0
1055 366 3 4.0 14.3 6.0
1056 366 5 3.5 14.3 6.0
1057 367 5 4.5 15.4 6.0
1058 367 4 4.0 15.4 6.0
1059 367 5 3.5 15.4 6.0
1060 368 5 4.5 16.5 6.0
1061 368 3 4.0 16.5 6.0
1062 368 5 3.5 16.5 6.0
1063 369 5 4.5 17.6 6.0
1064 369 4 4.0 17.6 6.0
1065 369 5 3.5 17.6 6.0
1066 370 5 4.5 18.7 6.0
1067 370 3 4.0 18.7 6.0
1068 370 5 3.5 18.7 6.0
1069 371 5 4.5 19.8 6.0
1070 371 4 4.0 19.8 6.0
1071 371 5 3.5 19.8 6.0
1072 372 5 4.5 20.9 6.0
1073 372 3 4.0 20.9 6.0
1074 372 5 3.5 20.9 6.0
1075 373 5 4.5 22.0 6.0
1076 373 4 4.0 22.0 6.0
1077 373 5 3.5 22.0 6.0
1078 374 5 4.5 23.1 6.0
1079 374 3 4.0 23.1 6.0
1080 374 5 3.5 23.1 6.0
1081 375 5 4.5 24.2 6.0
1082 375 4 4.0 24.2 6.0
1083 375 5 3.5 24.2 6.0
1084 376 5 4.5 25.3 6.0
1085 376 3 4.0 25.3 6.0
1086 376 5 3.5 25.3 6.0
1087 377 5 4.5 26.4 6.0
1088 377 4 4.0 26.4 6.0
1089 377 5 3.5 26.4 6.0
1090 378 5 4.5 27.5 6.0
1091 378 3 4.0 27.5 6.0
1092 378 5 3.5 27.5 6.0
1093 380 8 5.0 -6.123233995736766e-17 8.0
1094 380 2 4.0 0.0 8.0
1095 380 6 3.0 6.123233995736766e-17 8.0
1096 381 5 4.5 1.1 8.0
1097 381 3 4.0 1.1 8.0
1098 381 5 3.5 1.1 8.0
1099 382 5 4.5 2.2 8.0
1100 382 4 4.0 2.2 8.0
1101 382 5 3.5 2.2 8.0
1102 383 5 4.5 3.3 8.0
1103 383 3 4.0 3.3 8.0
1104 383 5 3.5 3.3 8.0
1105 384 5 4.5 4.4 8.0
1106 384 4 4.0 4.4 8.0
1107 384 5 3.5 4.4 8.0
1108 385 5 4.5 5.5 8.0
1109 385 3 4.0 5.5 8.0
1110 385 5 3.5 5.5 8.0
1111 386 5 4.5 6.6 8.0
1112 386 4 4.0 6.6 8.0
1113 386 5 3.5 6.6 8.0
1114 387 5 4.5 7.7 8.0
1115 387 3 4.0 7.7 8.0
1116 387 5 3.5 7.7 8.0
1117 388 5 4.5 8.8 8.0
1118 388 4 4.0 8.8 8.0
1119 388 5 3.5 8.8 8.0
1120 389 5 4.5 9.9 8.0
1121 389 3 4.0 9.9 8.0
1122 389 5 3.5 9.9 8.0
1123 390 5 4.5 11.0 8.0
1124 390 4 4.0 11.0 8.0
1125 390 5 3.5 11.0 8.0
1126 391 5 4.5 12.1 8.0
1127 391 3 4.0 12.1 8.0
1128 391 5 3.5 12.1 8.0
1129 392 5 4.5 13.2 8.0
1130 392 4 4.0 13.2 8.0
1131 392 5 3.5 13.2 8.0
1132 393 5 4.5 14.3 8.0
1133 393 3 4.0 14.3 8.0
1134 393 5 3.5 14.3 8.0
1135 394 5 4.5 15.4 8.0
1136 394 4 4.0 15.4 8.0
1137 394 5 3.5 15.4 8.0
1138 395 5 4.5 16.5 8.0
1139 395 3 4.0 16.5 8.0
1140 395 5 3.5 16.5 8.0
1141 396 5 4.5 17.6 8.0
1142 396 4 4.0 17.6 8.0
1143 396 5 3.5 17.6 8.0
1144 397 5 4.5 18.7 8.0
1145 397 3 4.0 18.7 8.0
1146 397 5 3.5 18.7 8.0
1147 398 5 4.5 19.8 8.0
1148 398 4 4.0 19.8 8.0
1149 398 5 3.5 19.8 8.0
1150 399 5 4.5 20.9 8.0
1151 399 3 4.0 20.9 8.0
1152 399 5 3.5 20.9 8.0
1153 400 5 4.5 22.0 8.0
1154 400 4 4.0 22.0 8.0
1155 400 5 3.5 22.0 8.0
1156 401 5 4.5 23.1 8.0
1157 401 3 4.0 23.1 8.0
1158 401 5 3.5 23.1 8.0
1159 402 5 4.5 24.2 8.0
1160 402 4 4.0 24.2 8.0
1161 402 5 3.5 24.2 8.0
1162 403 5 4.5 25.3 8.0
1163 403 3 4.0 25.3 8.0
1164 403 5 3.5 25.3 8.0
1165 404 5 4.5 26.4 8.0
1166 404 4 4.0 26.4 8.0
1167 404 5 3.5 26.4 8.0
1168 405 5 4.5 27.5 8.0
1169 405 3 4.0 27.5 8.0
1170 405 5 3.5 27.5 8.0
1171 407 8 7.0 -6.123233995736766e-17 0.0
1172 407 2 6.0 0.0 0.0
1173 407 6 5.0 6.123233995736766e-17 0.0
1174 408 5 6.5 1.1 0.0
1175 408 3 6.0 1.1 0.0
1176 408 5 5.5 1.1 0.0
1177 409 5 6.5 2.2 0.0
1178 409 4 6.0 2.2 0.0
1179 409 5 5.5 2.2 0.0
1180 410 5 6.5 3.3 0.0
1181 410 3 6.0 3.3 0.0
1182 410 5 5.5 3.3 0.0
1183 411 5 6.5 4.4 0.0
1184 411 4 6.0 4.4 0.0
1185 411 5 5.5 4.4 0.0
1186 412 5 6.5 5.5 0.0
1187 412 3 6.0 5.5 0.0
1188 412 5 5.5 5.5 0.0
1189 413 5 6.5 6.6 0.0
1190 413 4 6.0 6.6 0.0
1191 413 5 5.5 6.6 0.0
1192 414 5 6.5 7.7 0.0
1193 414 3 6.0 7.7 0.0
1194 414 5 5.5 7.7 0.0
1195 415 5 6.5 8.8 0.0
1196 415 4 6.0 8.8 0.0
1197 415 5 5.5 8.8 0.0
1198 416 5 6.5 9.9 0.0
1199 416 3 6.0 9.9 0.0
1200 416 5 5.5 9.9 0.0
1201 417 5 6.5 11.0 0.0
1202 417 4 6.0 11.0 0.0
1203 417 5 5.5 11.0 0.0
1204 418 5 6.5 12.1 0.0
1205 418 3 6.0 12.1 0.0
1206 418 5 5.5 12.1 0.0
1207 419 5 6.5 13.2 0.0
1208 419 4 6.0 13.2 0.0
1209 419 5 5.5 13.2 0.0
1210 420 5 6.5 14.3 0.0
1211 420 3 6.0 14.3 0.0
1212 420 5 5.5 14.3 0.0
1213 421 5 6.5 15.4 0.0
1214 421 4 6.0 15.4 0.0
1215 421 5 5.5 15.4 0.0
1216 422 5 6.5 16.5 0.0
1217 422 3 6.0 16.5 0.0
1218 422 5 5.5 16.5 0.0
1219 423 5 6.5 17.6 0.0
1220 423 4 6.0 17.6 0.0
1221 423 5 5.5 17.6 0.0
1222 424 5 6.5 18.7 0.0
1223 424 3 6.0 18.7 0.0
1224 424 5 5.5 18.7 0.0
1225 425 5 6.5 19.8 0.0
1226 425 4 6.0 19.8 0.0
1227 425 5 5.5 19.8 0.0
1228 426 5 6.5 20.9 0.0
1229 426 3 6.0 20.9 0.0
1230 426 5 5.5 20.9 0.0
1231 427 5 6.5 22.0 0.0
1232 427 4 6.0 22.0 0.0
1233 427 5 5.5 22.0 0.0
1234 428 5 6.5 23.1 0.0
1235 428 3 6.0 23.1 0.0
1236 428 5 5.5 23.1 0.0
1237 429 5 6.5 24.2 0.0
1238 429 4 6.0 24.2 0.0
1239 429 5 5.5 24.2 0.0
1240 430 5 6.5 25.3 0.0
1241 430 3 6.0 25.3 0.0
1242 430 5 5.5 25.3 0.0
1243 431 5 6.5 26.4 0.0
1244 431 4 6.0 26.4 0.0
1245 431 5 5.5 26.4 0.0
1246 432 5 6.5 27.5 0.0
1247 432 3 6.0 27.5 0.0
1248 432 5 5.5 27.5 0.0
1249 434 8 7.0 -6.123233995736766e-17 2.0
1250 434 2 6.0 0.0 2.0
1251 434 6 5.0 6.123233995736766e-17 2.0
1252 435 5 6.5 1.1 2.0
1253 435 3 6.0 1.1 2.0
1254 435 5 5.5 1.1 2.0
1255 436 5 6.5 2.2 2.0
1256 436 4 6.0 2.2 2.0
1257 436 5 5.5 2.2 2.0
1258 437 5 6.5 3.3 2.0
1259 437 3 6.0 3.3 2.0
1260 437 5 5.5 3.3 2.0
1261 438 5 6.5 4.4 2.0
1262 438 4 6.0 4.4 2.0
1263 438 5 5.5 4.4 2.0
1264 439 5 6.5 5.5 2.0
1265 439 3 6.0 5.5 2.0
1266 439 5 5.5 5.5 2.0
1267 440 5 6.5 6.6 2.0
1268 440 4 6.0 6.6 2.0
1269 440 5 5.5 6.6 2.0
1270 441 5 6.5 7.7 2.0
1271 441 3 6.0 7.7 2.0
1272 441 5 5.5 7.7 2.0
1273 442 5 6.5 8.8 2.0
1274 442 4 6.0 8.8 2.0
1275 442 5 5.5 8.8 2.0
1276 443 5 6.5 9.9 2.0
1277 443 3 6.0 9.9 2.0
1278 443 5 5.5 9.9 2.0
1279 444 5 6.5 11.0 2.0
1280 444 4 6.0 11.0 2.0
1281 444 5 5.5 11.0 2.0
1282 445 5 6.5 12.1 2.0
1283 445 3 6.0 12.1 2.0