LAMMPS (5 Jun 2019)
OMP_NUM_THREADS environment is not set. Defaulting to 1 thread. (src/comm.cpp:88)
  using 1 OpenMP thread(s) per MPI task


# ----------------- Init Section -----------------

include "simple_system.in.init"
        units lj
        atom_style angle
        pair_style hybrid lj/expand/twopiece 2.5 soft/shift 0.3 zero 1 morse 2.5
        bond_style hybrid harmonic
        angle_style hybrid harmonic
        special_bonds lj 0.0 0.0 0.0


# ----------------- Atom Definition Section -----------------

read_data "simple_system.data"
  orthogonal box = (-10 -10 -10) to (10 10 10)
  1 by 1 by 1 MPI processor grid
  reading atoms ...
  15 atoms
  scanning bonds ...
  2 = max bonds/atom
  scanning angles ...
  1 = max angles/atom
  reading bonds ...
  14 bonds
  reading angles ...
  13 angles
  2 = max # of 1-2 neighbors
  2 = max # of 1-3 neighbors
  4 = max # of 1-4 neighbors
  6 = max # of special neighbors
  special bonds CPU = 0.000110082 secs
  read_data CPU = 0.0231083 secs

# ----------------- Settings Section -----------------

include "simple_system.in.settings"
       pair_coeff 2 2 lj/expand/twopiece 0.5 1 0.5 0.
        pair_coeff 3 3 lj/expand/twopiece 1.0 1 0.5 0.
        pair_coeff 4 4 lj/expand/twopiece 1.0 1 0.5 0.
        pair_coeff 3 4 lj/expand/twopiece 1.0 1 0.5 0.
        pair_coeff 2 3 lj/expand/twopiece 0.5 1 0.5 0.
        pair_coeff 2 4 lj/expand/twopiece 0.5 1 0.5 0.

        pair_coeff 5 5 soft/shift 1.5 0.2
pair_coeff 2 5 zero
pair_coeff 1 5 zero
pair_coeff 3 5 zero
pair_coeff 4 5 zero

        pair_coeff 8 8 lj/expand/twopiece 0.5 1 0.5 0.
pair_coeff 5 8 lj/expand/twopiece 0.5 1 0.5 0.
pair_coeff 2 8 zero
pair_coeff 1 8 morse 100 4 0.5
pair_coeff 3 8 zero
pair_coeff 4 8 zero
pair_coeff 6 8 zero
pair_coeff 7 8 zero

        pair_coeff 6 6 soft/shift 1.5 0.2
pair_coeff 2 6 zero
pair_coeff 1 6 zero
pair_coeff 3 6 zero
pair_coeff 4 6 zero
        pair_coeff 6 7 soft/shift 1.5 0.2

        pair_coeff 7 7 soft/shift 1.5 0.2
pair_coeff 2 7 zero
pair_coeff 1 7 zero
pair_coeff 3 7 zero
pair_coeff 4 7 zero

        pair_coeff 1 1 lj/expand/twopiece 0.5 1 0.8 0.
        pair_coeff 1 2 lj/expand/twopiece 0.5 1 0.8 0.
        pair_coeff 1 3 lj/expand/twopiece 0.5 1 0.8 0.
        pair_coeff 1 4 lj/expand/twopiece 0.5 1 0.8 0.


        bond_coeff 1 harmonic 1000 0.4
        bond_coeff 2 harmonic 1000 0.4
        bond_coeff 3 harmonic 1000 0.15

        angle_coeff 1 harmonic 20 180
        angle_coeff 2 harmonic 20 180
        angle_coeff 3 harmonic 20 180
        angle_coeff 4 harmonic 20 180


# ----------------- Run Section -----------------

include "simple_system.in.run"
  dump dxyz all atom 100 poly.lammpstrj
  thermo 200
  minimize 1.0e-6 1.0e-8 10000 100000
WARNING: Using 'neigh_modify every 1 delay 0 check yes' setting during minimization (src/min.cpp:168)
Neighbor list info ...
  update every 1 steps, delay 0 steps, check yes
  max neighbors/atom: 2000, page size: 100000
  master list distance cutoff = 2.8
  ghost atom cutoff = 2.8
  binsize = 1.4, bins = 15 15 15
  5 neighbor lists, perpetual/occasional/extra = 5 0 0
  (1) pair lj/expand/twopiece, perpetual, skip from (5)
      attributes: half, newton on
      pair build: skip
      stencil: none
      bin: none
  (2) pair soft/shift, perpetual, skip from (5)
      attributes: half, newton on
      pair build: skip
      stencil: none
      bin: none
  (3) pair zero, perpetual, skip from (5)
      attributes: half, newton on
      pair build: skip
      stencil: none
      bin: none
  (4) pair morse, perpetual, skip from (5)
      attributes: half, newton on
      pair build: skip
      stencil: none
      bin: none
  (5) neighbor class addition, perpetual
      attributes: half, newton on
      pair build: half/bin/newton
      stencil: half/bin/3d/newton
      bin: standard
Per MPI rank memory allocation (min/avg/max) = 8.645 | 8.645 | 8.645 Mbytes
Step Temp E_pair E_mol TotEng Press 
       0            0 -7.8088185e-05    579.81849    579.81842   -0.7586748 
     200            0 -0.00026562824 5.2268498e-06 -0.00026040139 -4.6972449e-08 
     277            0 -0.00026562816 3.1075471e-06 -0.00026252061 -2.072756e-08 
Loop time of 0.0195385 on 1 procs for 277 steps with 15 atoms

64.6% CPU use with 1 MPI tasks x 1 OpenMP threads

Minimization stats:
  Stopping criterion = energy tolerance
  Energy initial, next-to-last, final = 
         579.818415454 -0.000262520384814 -0.000262520612109
  Force two-norm initial, final = 8660.82 0.0113121
  Force max component initial, final = 2375.28 0.00505444
  Final line search alpha, max atom move = 0.125 0.000631805
  Iterations, force evaluations = 277 1704

MPI task timing breakdown:
Section |  min time  |  avg time  |  max time  |%varavg| %total
---------------------------------------------------------------
Pair    | 0.0023208  | 0.0023208  | 0.0023208  |   0.0 | 11.88
Bond    | 0.010376   | 0.010376   | 0.010376   |   0.0 | 53.11
Neigh   | 0.00052027 | 0.00052027 | 0.00052027 |   0.0 |  2.66
Comm    | 0.00074857 | 0.00074857 | 0.00074857 |   0.0 |  3.83
Output  | 0.0022808  | 0.0022808  | 0.0022808  |   0.0 | 11.67
Modify  | 0          | 0          | 0          |   0.0 |  0.00
Other   |            | 0.003292   |            |       | 16.85

Nlocal:    15 ave 15 max 15 min
Histogram: 1 0 0 0 0 0 0 0 0 0
Nghost:    0 ave 0 max 0 min
Histogram: 1 0 0 0 0 0 0 0 0 0
Neighs:    3 ave 3 max 3 min
Histogram: 1 0 0 0 0 0 0 0 0 0

Total # of neighbors = 3
Ave neighs/atom = 0.2
Ave special neighs/atom = 5.2
Neighbor list builds = 28
Dangerous builds = 0
  timestep 0.001
  velocity all create 3.0 49840
  fix   fxnvt all nvt temp 3.0 3.0 500.0
  run   500000
Neighbor list info ...
  update every 1 steps, delay 10 steps, check yes
  max neighbors/atom: 2000, page size: 100000
  master list distance cutoff = 2.8
  ghost atom cutoff = 2.8
  binsize = 1.4, bins = 15 15 15
  5 neighbor lists, perpetual/occasional/extra = 5 0 0
  (1) pair lj/expand/twopiece, perpetual, skip from (5)
      attributes: half, newton on
      pair build: skip
      stencil: none
      bin: none
  (2) pair soft/shift, perpetual, skip from (5)
      attributes: half, newton on
      pair build: skip
      stencil: none
      bin: none
  (3) pair zero, perpetual, skip from (5)
      attributes: half, newton on
      pair build: skip
      stencil: none
      bin: none
  (4) pair morse, perpetual, skip from (5)
      attributes: half, newton on
      pair build: skip
      stencil: none
      bin: none
  (5) neighbor class addition, perpetual
      attributes: half, newton on
      pair build: half/bin/newton
      stencil: half/bin/3d/newton
      bin: standard
Per MPI rank memory allocation (min/avg/max) = 8.769 | 8.769 | 8.769 Mbytes
Step Temp E_pair E_mol TotEng Press 
     277            3 -0.00026562816 3.1075471e-06    4.1997375 0.0052499793 
     400    2.0063269 -0.00021901269    1.3953604    4.2039991 -0.0035901963 
     600    1.7652842 -0.00036219517    1.7369351    4.2079708 0.0061424601 
     800    1.8444644 -0.00027144275    1.6262921    4.2082708 0.0034150007 
    1000    1.8695723 -0.00031753358    1.5899466    4.2070303 0.0036035817 
    1200    1.4675602 -0.0002344875    2.1549079    4.2092577 -0.0010683165 
    1400    1.4675966 -0.00026085823    2.1559456      4.21032 -0.004175012 
    1600    1.5879496 -0.00035144827     1.985013     4.207791 0.0059351259 
    1800   0.90947286 -0.0002371289    2.9388898    4.2119147 -0.007233032 
    2000    1.7073849 -0.00030474838    1.8165643    4.2065984  0.004243597 
    2200    1.5086058 -0.00027271058    2.0983361    4.2101115 -0.0033097347 
    2400    1.7851977 -0.00033899399    1.7100492     4.208987 0.0003345022 
    2600    1.6146762 -0.00028414126    1.9493939    4.2096564 0.0012285236 
    2800     1.491403 -0.00036012245    2.1229403    4.2105444 0.0028916612 
    3000     1.485383 -0.00020474822    2.1295869    4.2089183 -0.0025615517 
    3200    1.3141881 -0.00042533195    2.3700084    4.2094465 -0.0010541849 
    3400     1.249797 -0.00020984048      2.46154    4.2110459 -0.0067348195 
    3600     1.483264 -0.00042400889    2.1341828    4.2103284 0.0041457046 
    3800    1.1286109 -0.00018348964    2.6301606    4.2100324 -0.0078112157 
    4000    1.7383501 -0.00039228758    1.7710648    4.2043626  0.006382802 
    4200    1.5832296 -0.00024814193    1.9908915    4.2071648 -0.0045680931 
    4400    1.3673512 -0.000424655    2.2932431    4.2071101 -0.00028090515 
    4600    1.4249102 -0.0003000454    2.2163458      4.21092   0.00203093 
    4800    1.5608572 -0.00024047822    2.0248166    4.2097762 -0.00017666424 
    5000    1.5225201 -0.00028011734    2.0795285    4.2107765 0.0020835687 
    5200    1.9557016 -0.00037247001    1.4661161    4.2037259 0.0043671095 
    5400    1.5356931 -0.00025111478    2.0598555    4.2095748 -0.0017020508 
    5600     1.457617 -0.00028313355    2.1700247    4.2104053 -0.0013851083 
    5800    1.2227171 -0.00031065341    2.4987798    4.2102731 0.00095709102 
    6000    1.4853068 -0.00028998156    2.1288028    4.2079424 -0.0021792273 
    6200    1.0960874 -0.00031728862    2.6813244    4.2155295 -0.00085050643 
    6400    1.9561223 -0.00030653195    1.4669669    4.2052316 0.0026718197 
    6600    1.6882166 -0.00027549023    1.8469909    4.2102186 -0.00051849664 
    6800    1.3585851 -0.00032678781    2.3088715    4.2105638 0.00085445452 
    7000    1.4543612 -0.00032570561    2.1714181    4.2071981 -0.0018345399 
    7200    1.3407224 -0.0002938186    2.3318843    4.2086018 -0.00014683541 
    7400     1.689738 -0.00025059803    1.8424623    4.2078448 0.00026083367 
    7600    1.6349071 -0.00027289022    1.9199865    4.2085835 0.00062204573 
    7800    1.3153178 -0.00031363919    2.3723497     4.213481 0.0013379228 
    8000    1.7083988 -0.00031692986    1.8161455    4.2075868 0.0013485391 
    8200    1.1974917 -0.00028113127    2.5367232    4.2129305 -0.0018754932 
    8400    1.3794663 -0.00029181244    2.2765077    4.2074687 -0.0010653165 
    8600    1.3111032 -0.0002828769    2.3728746    4.2081363 -0.0026871391 
    8800    2.0330942 -0.00033876383    1.3571512    4.2031443 0.0053725001 
    9000    1.4905988 -0.00028289015    2.1234483    4.2100037 -0.0035933464 
    9200    1.3245844 -0.00028855216    2.3571796    4.2113092 0.00041389661 
    9400    1.7461192 -0.00028156774    1.7662726    4.2105579 9.719001e-05 
    9600    1.9182573 -0.00027188027    1.5223414    4.2076297 0.0021167922 
    9800    1.5607629 -0.0003582025    2.0212119    4.2059218 -6.7125395e-06 
   10000    1.5178164 -0.00029519938    2.0875658    4.2122136 0.00033435135 
   10200    1.2816813 -0.00027468749    2.4186059    4.2126851 -8.6743869e-06 
   10400    1.1947753 -0.00027527308    2.5419865    4.2143966 -0.0028051696 
   10600    1.1190682 -0.00033129945    2.6465624    4.2129266 0.0024906311 
   10800    1.3888739 -0.00027389833    2.2633125     4.207462 -0.0048847687 
   11000    1.4850039 -0.00033892446    2.1305447    4.2092112 0.0056978562 
   11200    1.4218349 -0.00022855862    2.2190554    4.2093957 -0.0059339341 
   11400    1.5170995 -0.00030219762    2.0852069     4.208844 0.0018281125 
   11600    1.6156091 -0.00029148138    1.9480898    4.2096511 0.0010470983 
   11800    1.2487169 -0.00033027863    2.4601604    4.2080337 -0.0024070208 
   12000    2.1583219 -0.0002743167    1.1826181    4.2039944 0.0023545225 
   12200    1.4158362 -0.00030140354     2.229084    4.2109533 0.00053579232 
   12400    1.5498674 -0.00024935294    2.0385941    4.2081591 -0.0023892912 
   12600    1.6380128 -0.00032593237      1.91493     4.207822 0.0010635333 
   12800    1.6163169 -0.00033576223    1.9467767    4.2092847 0.0044520226 
   13000    1.8158004 -0.00025645844    1.6671488    4.2090129 0.0015775826 
   13200     1.810683 -0.00026291521    1.6738094    4.2085027 0.0013649126 
   13400    1.6290673 -0.00028773865    1.9305734    4.2109799 0.0043864182 
   13600   0.87952842 -0.00034852561    2.9828045    4.2137958 -0.0016674813 
   13800    1.4215253 -0.00025740288    2.2197951    4.2096731 -0.00056383482 
   14000    1.2574961 -0.00033567238    2.4509711    4.2111299 0.0022226702 
   14200    1.3293592 -0.00020605095    2.3501677    4.2110645 -0.0032219153 
   14400    1.5653767 -0.00037237976     2.018656     4.209811  0.002523745 
   14600    1.1039088 -0.00024896239    2.6677496    4.2129729 -0.0072302294 
   14800    1.3975168 -0.00037913521    2.2518964    4.2080408 0.0033782417 
   15000     1.855745 -0.00022892682    1.6109519     4.208766 -0.0044797771 
   15200    1.5178388 -0.00034998155    2.0835824    4.2082067 -0.0004196522 
   15400    1.5747155 -0.00027651414    2.0075331    4.2118583 -0.0053068543 
   15600    1.7207427 -0.00036257865    1.7999244    4.2086016 0.0047789699 
   15800    1.3329982 -0.000299337    2.3464746    4.2123727 0.00013699297 
   16000    1.6949507 -0.0002561196    1.8360799    4.2087547 0.0014928135 
   16200    1.2481804 -0.00023090563    2.4654586    4.2126803 -0.006698413 
   16400    0.9700508 -0.00037767807    2.8561677    4.2138611 0.0039730435 
   16600    1.7585171 -0.00025268844    1.7464995    4.2081708 -0.0020316115 
   16800    1.5031285 -0.00028570753    2.1029095    4.2070036 -0.00029987286 
   17000    1.3043076 -0.00028229946     2.388091    4.2138393 0.0016382037 
   17200    1.9044885 -0.00035746759    1.5402303    4.2061568 0.0014443203 
   17400    1.3528351 -0.00025502407    2.3178617    4.2115759 -0.0050553372 
   17600    1.6739444 -0.00038386424    1.8586992    4.2018374 -0.00017122861 
   17800    1.3182719 -0.00024477889    2.3689946    4.2143304 -0.0033868758 
   18000    1.3269735 -0.00034706719    2.3532665    4.2106824 -0.0010153215 
   18200    1.6065047 -0.00027586519    1.9607992    4.2096298 -0.0036760959 
   18400    1.2203193 -0.00046487442    2.5047288    4.2127109 0.00089223161 
   18600    1.7916298 -0.00021866365    1.6997891    4.2078521 -0.0035891944 
   18800    1.7574686 -0.00034460826       1.7503    4.2104115 0.0028768227 
   19000     1.433739 -0.00024826303    2.2040899    4.2110763 0.00027127133 
   19200    1.3848449 -0.00045337483    2.2704819    4.2088114  0.003917582 
   19400    1.5120433 -0.00023517156    2.0929316     4.209557 -0.0024701683 
   19600    1.6852325 -0.00031062362    1.8501968    4.2092117 -0.00047913054 
   19800    1.7653197 -0.00022433458    1.7380309    4.2092541 -0.001027912 
   20000    1.8231261 -0.00041886191    1.6563648    4.2083226 0.0068168528 
   20200    1.7626439 -0.0002583167     1.740742    4.2081852 0.00038233889 
   20400    1.6679137 -0.00032413234    1.8732052    4.2079604 -0.0033899415 
   20600    1.5974953 -0.00026387355    1.9776963    4.2139259 -0.00057672368 
   20800    1.8627356 -0.00032405083    1.6027474    4.2102531 0.0012967056 
   21000    1.6156889 -0.0002173571    1.9490539     4.210801 -0.0021447069 
   21200    1.5471669 -0.00036577691    2.0462867    4.2119546 0.0047638731 
   21400     1.954272 -0.00020237144    1.4735383    4.2093167 -0.0038382588 
   21600     1.990449 -0.00040974077    1.4228211    4.2090399 0.0061443987 
   21800    1.2875116 -0.00025705164    2.4109228     4.213182 -0.0086602053 
   22000    1.3537134 -0.00031876521    2.3155343    4.2104143 -0.0015726813 
   22200    1.8703826 -0.00027856947    1.5924427    4.2106998 0.0010024815 
   22400    1.7374348 -0.00029946599    1.7809038    4.2130131 0.0019088347 
   22600     1.625151 -0.00024172862    1.9368048    4.2117744 -0.0029540609 
   22800    1.5752279 -0.00034434905     2.006874    4.2118487  0.004401492 
   23000      1.34081 -0.00030931999    2.3361429    4.2129675 0.0004056726 
   23200    1.1947883 -0.0002416583     2.540579    4.2130411 -0.0034587907 
   23400    1.7060904 -0.00040500748    1.8214292    4.2095508 0.0066985375 
   23600    1.8717995 -0.00022048356    1.5903205    4.2106193 -0.0004334738 
   23800     1.464752 -0.0002931437    2.1623317    4.2126913 -0.0029926374 
   24000    1.7305581 -0.00035397127    1.7884518    4.2108791 0.0033698554 
   24200    1.5838258 -0.00048496897    1.9915641    4.2084352 -0.00036406843 
   24400    1.7448307 -0.00023300656    1.7667049    4.2092349 -0.0051010241 
   24600    1.3721618 -0.00039916194    2.2928971    4.2135244 0.0017970343 
   24800    1.4613996 -0.00021162443    2.1660835    4.2118313 -0.0080029408 
   25000    1.6536209 -0.0004202398    1.8923265    4.2069755 0.00098918841 
   25200    1.2172573 -0.00029878607    2.5091074    4.2129688 -0.00069506244 
   25400    1.4061596 -0.00028564701    2.2420518    4.2103896 -0.0017923416 
   25600     1.161338 -0.00023968183      2.58879    4.2144236 -0.0046095595 
   25800     1.269767 -0.00039954318    2.4359851    4.2132594 0.0053797283 
   26000    1.4674923 -0.0003217071    2.1588758    4.2130432 0.0010787639 
   26200     1.544174 -0.00028066474    2.0507808    4.2123437 -0.0012050522 
   26400     1.657173 -0.00027109521     1.891605    4.2113761 -0.0024909148 
   26600    1.5904165 -0.000448091    1.9835287    4.2096638 0.0039256462 
   26800     1.384615 -0.00027677447    2.2746752    4.2128594 -0.0042971927 
   27000    1.4185041 -0.00038473491    2.2264428    4.2119638 0.00081211687 
   27200    1.4879694 -0.00021939911    2.1309389    4.2138767 -0.0035268708 
   27400    1.4662247 -0.00040253757    2.1610959    4.2134079 0.0060433517 
   27600    1.3933915 -0.00026440202    2.2623966    4.2128803  -0.00532539 
   27800    1.5389861 -0.00033436265    2.0567993    4.2110455 -0.00041353982 
   28000    1.4431553 -0.00030713693    2.1946419    4.2147523 0.00041164466 
   28200    1.5680988 -0.00027035708    2.0165263    4.2115942 -0.0012646851 
   28400    1.6444075 -0.00028455225    1.9096142    4.2115001 0.0010401021 
   28600    1.5226811 -0.00034698585    2.0811517    4.2125583 -0.00052613461 
   28800    1.7607292 -0.00038161511    1.7462808    4.2109201  0.006180511 
   29000    1.9037082 -0.00021850915    1.5465809    4.2115539 -0.0046123831 
   29200    1.5629467 -0.00033636535     2.025959     4.213748 0.0027020631 
   29400    1.3846847 -0.00026937399    2.2736855    4.2119747 -0.0049708465 
   29600     1.440245 -0.00045158044      2.19492    4.2108114 0.0042201541 
   29800    1.7490971 -0.00020972284     1.762845    4.2113713 -0.0042856209 
   30000    1.5554196 -0.00034612081    2.0355718    4.2128132 0.0060339054 
   30200    1.3597754 -0.00024135079    2.3109593    4.2144035 -0.0034871179 
   30400    1.5298098 -0.00045342603    2.0733423    4.2146226 0.0036000262 
   30600     1.882097 -0.00035145061    1.5778712    4.2124555 0.0037599035 
   30800    1.3571773 -0.00025873589    2.3140934    4.2138829 -0.0026760888 
   31000    1.7883961 -0.00025377167    1.7108021    4.2143028 0.0011221945 
   31200    1.3617498 -0.00043712905    2.3089021    4.2149147  0.007874886 
   31400    1.7164848 -0.00029287454    1.8083783    4.2111642 -0.00017892621 
   31600    1.6652899 -0.00025612376    1.8843048    4.2154546 0.00054396719 
   31800     1.834035 -0.00031779164    1.6455347    4.2128659 0.0044080711 
   32000    1.5298239 -0.00029010148    2.0712819    4.2127453 -0.0035645997 
   32200     1.214293 -0.00034571428     2.516907    4.2165715 -0.00074985814 
   32400    1.5326501 -0.00044272895    2.0677175    4.2129848  0.001495889 
   32600     1.742462 -0.00027111609    1.7746292    4.2138049 -0.00030348785 
   32800     1.703511 -0.00029930295     1.829999     4.214615 0.00099158012 
   33000    1.7944456 -0.0002674012    1.7018474    4.2138038 -0.0013113465 
   33200    1.2678629 -0.00033470871    2.4407508    4.2154242 -0.0039374646 
   33400    1.7729269 -0.00040565818    1.7313914    4.2130833 0.0060864161 
   33600    1.6464425 -0.00024253547    1.9102999    4.2150769 -0.0024690484 
   33800    1.8593253 -0.00030903836    1.6108793    4.2136256 0.0044329079 
   34000    1.6376197 -0.00028516554    1.9218311    4.2142135 -0.0020060599 
   34200    1.5006723 -0.00043290854     2.115222    4.2157303 0.0037078623 
   34400    1.4716034 -0.00029802117    2.1542821    4.2142289 -0.0026637952 
   34600    1.3047552 -0.00029147752    2.3889009    4.2152667 -0.001924424 
   34800    1.8118923 -0.00027555297    1.6778837    4.2142574 0.0001399923 
   35000     1.514273 -0.00038655645    2.0947531    4.2143487 0.0050328687 
   35200     1.345925 -0.00027578894    2.3319665    4.2159857 -0.002930331 
   35400    1.8223808 -0.00038283069     1.662346    4.2132963 0.0060791911 
   35600    1.2238727 -0.00022878813    2.5038557    4.2170487 -0.0049840835 
   35800    1.3003736 -0.00033528872    2.3967093    4.2168971 -0.0010113567 
   36000    1.4616528 -0.0002593175    2.1690111    4.2150656 -0.0042825004 
   36200    1.5855439 -0.00036762069    1.9956111    4.2150049 0.0012042834 
   36400    1.5467931 -0.00031509868    2.0515351    4.2167304 0.0038690132 
   36600    1.4917841 -0.00027270411    2.1293649    4.2175899 -0.0022073644 
   36800    1.4789694 -0.00026330034    2.1464982    4.2167921 0.00036155753 
   37000    1.3271884 -0.00037746638    2.3582568    4.2159432 -0.001397792 
   37200    1.3237356 -0.00035533204    2.3652305     4.218105 0.00095157385 
   37400     1.658819 -0.00021767588    1.8921667    4.2142956 -0.007277674 
   37600    1.6379885 -0.00037173266    1.9228195    4.2156316  0.008851295 
   37800    1.4497895 -0.0002412591    2.1858482    4.2153122 -0.0040611586 
   38000    2.0056558 -0.00043225819    1.4055501     4.213036 0.0062879929 
   38200    1.6359962 -0.00034256794    1.9277137    4.2177658 0.0036279303 
   38400    1.8237013 -0.00024724102    1.6613821    4.2143167 -0.0017122818 
   38600    1.9542999 -0.00023753165    1.4773297     4.213112 0.0004075898 
   38800    1.4627797 -0.00040524797    2.1688854    4.2163717 0.0038296182 
   39000     1.520326 -0.0003268865    2.0854079    4.2135375 0.0021281912 
   39200    1.7998966 -0.0002745011    1.6936855    4.2132662 -0.003430625 
   39400     1.718092 -0.00032128231    1.8137275     4.218735 0.0045634926 
   39600    1.8187633 -0.00026363051    1.6706929     4.216698 -0.00040878364 
   39800    1.5545752 -0.00034300736    2.0412461    4.2173083 -0.00031827613 
   40000    1.1631314 -0.00038298224    2.5905644    4.2185653 -0.0022616874 
   40200    1.6433024 -0.00043448922    1.9137799    4.2139688 0.0028680996 
   40400    1.5229998 -0.00019729768    2.0854748    4.2174772 -0.003479731 
   40600    1.8011471 -0.00041476426    1.6940028    4.2151939 0.0064623942 
   40800    1.4102462 -0.00025322152    2.2424987    4.2165902 -0.00099345654 
   41000    1.5399645 -0.00036475938    2.0596486    4.2152342 -0.00051817211 
   41200    1.4868489 -0.00032359216    2.1349226    4.2161874 -8.212197e-05 
   41400    1.5987141 -0.00025476431    1.9787365    4.2166814 -0.0024379213 
   41600    1.4885149 -0.00028919981    2.1328252    4.2164569 -0.0018600886 
   41800    1.3905362 -0.0003351931    2.2728899    4.2193055 0.00076728792 
   42000    1.6473744 -0.00046435552    1.9099939    4.2158537 0.0029599472 
   42200    1.4166739 -0.00029513504    2.2350275    4.2180758 0.0006993625 
   42400    1.7386792 -0.00024602454    1.7827494    4.2166542  -0.00165377 
   42600    1.9837931 -0.00032087839    1.4394904    4.2164798 0.0023699587 
   42800     1.271356 -0.00041013776    2.4386071    4.2180954  -0.00143959 
   43000    1.2194331 -0.00029525615    2.5125442    4.2194552 -0.0090016752 
   43200    1.2660387 -0.00038398328    2.4495102    4.2215804 -1.3197058e-05 
   43400    2.0339989 -0.00021833519    1.3669634    4.2143435 -0.004039046 
   43600    1.2167014 -0.00033981357    2.5177472    4.2207894 0.0033398685 
   43800    1.9239125 -0.00036172315     1.520897    4.2140128 -0.0017873307 
   44000    1.5493378 -0.0003448255    2.0493308    4.2180589 -0.00094906185 
   44200    1.5888736 -0.00028840394    1.9938737    4.2180084 -0.00037346264 
   44400    1.2713207 -0.00032170404    2.4402625    4.2197897 0.00032983419 
   44600    1.4976282 -0.00031356829    2.1228226    4.2191886 0.00066304284 
   44800    1.3085855 -0.00033331186    2.3866981    4.2183845 -0.00072591901 
   45000    1.4862508 -0.0003592274    2.1338495    4.2142414 0.0048435587 
   45200    1.6310314 -0.00023486968    1.9347978    4.2180068 -0.0034170558 
   45400    1.4631933 -0.00033799514    2.1691709    4.2173035 0.0021987864 
   45600    1.5269133 -0.0002805187    2.0815216    4.2189197 -0.0030314512 
   45800    1.9424667 -0.00040926103    1.4982054    4.2172496 0.0051674951 
   46000    1.6249028 -0.0002768313     1.943416    4.2180031 -7.0171412e-06 
   46200     1.824307 -0.00026818458    1.6647921    4.2185537 0.0021900961 
   46400    1.7369666 -0.00032133675    1.7873586    4.2187905 0.00080155762 
   46600    1.7217327 -0.00041567955    1.8065451    4.2165552 -8.9803392e-05 
   46800    1.3035592 -0.00029970273    2.3940685    4.2187518 -0.004850819 
   47000    1.2428307 -0.00038589974    2.4816495    4.2212265 0.0012498541 
   47200    1.3345913 -0.00019197593    2.3519802     4.220216 -0.0046087541 
   47400    1.3947167 -0.00038079287    2.2674533    4.2196759 0.0038411316 
   47600    1.5500929 -0.00030661046    2.0483066      4.21813 0.0026623468 
   47800    1.8282506 -0.00032747836    1.6562032    4.2154265 -8.6769443e-05 
   48000    1.7446363 -0.00023695552    1.7767123    4.2189661 -0.002055351 
   48200    1.9501176 -0.00039340487    1.4868118     4.216583 0.0048960568 
   48400    1.4878111 -0.00021379962    2.1359141    4.2186358 -0.0048496081 
   48600    1.4926796 -0.00037823346    2.1307375    4.2201107 0.0051675619 
   48800    1.3501982 -0.00030501362    2.3309969    4.2209695 0.00038497983 
   49000    1.6047542 -0.00028426844    1.9721768    4.2185484 -0.00030859224 
   49200    1.6060679 -0.00025120653    1.9708842     4.219128 -0.0037888561 
   49400    1.2226073 -0.00042378959    2.5097158    4.2209422 0.0041454058 
   49600    1.7317019 -0.00023881341    1.7946326    4.2187764 -0.0060243136 
   49800    1.8742289 -0.00029488363    1.5952609    4.2188865 0.0001974694 
   50000    1.7345654 -0.00033546685    1.7889125    4.2169686 0.0037133597 
   50200    1.4517453 -0.00042711915    2.1883532    4.2203694 0.0035761156 
   50400    1.5235334 -0.00025975301    2.0902987    4.2229857 -0.00050489927 
   50600    1.8121072 -0.00044590352    1.6810167    4.2175209 0.0033937702 
   50800    1.2586622 -0.00022326426    2.4601105    4.2220142 -0.0055712876 
   51000    1.4933339 -0.00035908415    2.1289934    4.2193017 -0.00074757575 
   51200    1.4062235 -0.00025003195    2.2513835    4.2198464  -0.00469895 
   51400    1.2742484 -0.00042762749     2.436901    4.2204211 0.0058300915 
   51600     1.465788 -0.00019256347    2.1677404    4.2196511 -0.0078968359 
   51800    1.3681186 -0.00037812593     2.307061     4.222049 0.0035816183 
   52000    1.6120116 -0.00026538807    1.9619698    4.2185206 -0.005130346 
   52200    1.1852778 -0.0004864038     2.563083    4.2219856 -0.00077735735 
   52400    1.3245983 -0.00035457078    2.3693009     4.223384 0.00061751553 
   52600    1.5882178 -0.00028250959    1.9963825    4.2196049 -0.0021701448 
   52800    1.6767962 -0.00026703262    1.8731254     4.220373 0.00033122985 
   53000    2.1399583 -0.00039065637    1.2238136    4.2193645 0.0072109769 
   53200    1.2494189 -0.00027426069    2.4732838     4.222196 -0.0053304123 
   53400    1.2353103 -0.0003489268    2.4937592    4.2228447 -0.0018104688 
   53600    1.7866134 -0.0003275407    1.7214961    4.2224274 0.0041069761 
   53800     1.674597 -0.00026954701    1.8764468    4.2206131 -0.0018503474 
   54000    1.5364881 -0.00028028393    2.0714066    4.2222097 -0.0016665879 
   54200     1.369611 -0.00041403628    2.3033603    4.2204017 0.0029484929 
   54400    1.6200046 -0.00025693134    1.9536113    4.2213608 -0.0032685694 
   54600    1.3853653 -0.00027048221    2.2826958    4.2219368 -0.0060078849 
   54800    1.5367124 -0.00030970267    2.0737224      4.22481 0.0023193902 
   55000   0.87792604 -0.00040141212    2.9983538    4.2270488 0.0028154421 
   55200    1.6669579 -0.00019536835    1.8867932    4.2203389 -0.0058863678 
   55400    1.3390688 -0.00035938677     2.350111    4.2244479 0.0052708565 
   55600    1.5096462 -0.00023797255    2.1090489    4.2223156 -0.0030133603 
   55800    1.7466605 -0.00047621435    1.7760114    4.2208598 0.00076020187 
   56000    1.6236239 -0.00031611095    1.9492005    4.2219578 -0.001470934 
   56200    1.7998103 -0.00032250977    1.7002101    4.2196219 0.00018975382 
   56400    1.7216626 -0.00024572575    1.8116487    4.2217306 -0.0014459557 
   56600    1.7061465 -0.00037311046    1.8323416    4.2205736 0.0035699974 
   56800    1.4679922 -0.00030980871     2.169644    4.2245233 0.0014124038 
   57000    1.5614397 -0.00037279561    2.0376654    4.2233082 0.0022033339 
   57200    1.3542497 -0.00023513615    2.3281915     4.223906 -0.0029755842 
   57400     1.429982 -0.0003175637     2.222209    4.2238662 -0.0010332816 
   57600    1.2415446 -0.00026378211    2.4877329    4.2256316 -0.0053096311 
   57800    1.5818236 -0.00040225494    2.0103634    4.2245142 0.0054439001 
   58000    1.4996109 -0.00037545406    2.1252696    4.2243494  0.002949203 
   58200     2.062934 -0.00022121697    1.3326405    4.2205268 -0.0027077935 
   58400    1.3604651 -0.00032391464    2.3204659     4.224793 -0.00086229811 
   58600    1.7656779 -0.00033797258    1.7496467    4.2212578 0.00043547593 
   58800     1.183308 -0.00030199874    2.5692056    4.2255347 -0.0049781046 
   59000    1.9818972 -0.00034236871    1.4476416    4.2219552  0.004043372 
   59200    1.7161158 -0.00023096484    1.8228891    4.2252202 -0.0011953234 
   59400    1.8103025 -0.00033019473    1.6909073    4.2250006 0.0015654117 
   59600    1.3893109 -0.00035690185    2.2795936    4.2242719  0.002831311 
   59800    1.8847725 -0.00031992241    1.5846435     4.223005 -0.0017145612 
   60000    1.6444917 -0.00029869847    1.9240757    4.2260654 -0.0021360908 
   60200    1.6167444 -0.00028306344    1.9608865    4.2240457 -0.0032823867 
   60400    1.6204909 -0.00030925928    1.9555049    4.2238829 0.0017518298 
   60600    1.3595782 -0.00040116808    2.3223276    4.2253359 -0.00087818683 
   60800    1.4010055 -0.00030187026     2.263575    4.2246808 -0.0013667349 
   61000    2.0254613 -0.00032422105    1.3883245    4.2236462 0.0033607166 
   61200    1.8378595 -0.00022784139    1.6512224    4.2239979 -0.003591859 
   61400    1.7982599 -0.00037942234    1.7059358    4.2231203  0.005464033 
   61600    1.3106416 -0.00034347999    2.3923742    4.2269289 0.0023638176 
   61800    1.6333355 -0.00026447499    1.9407951    4.2272004 -0.0013869331 
   62000    1.7671545 -0.00031501977    1.7511198    4.2248211 0.0028968717 
   62200    1.5803501 -0.00028650653     2.014003    4.2262066 -0.00097700059 
   62400    1.3021052 -0.00033308698    2.4040644    4.2266786  -0.00184638 
   62600     1.434387 -0.00035946123    2.2178313    4.2256137 -0.00020183085 
   62800    1.5398059 -0.00028252592    2.0696102    4.2250559 0.00032707062 
   63000     1.332675 -0.00025590003    2.3635902    4.2290792 -0.00031849738 
   63200    1.6820825 -0.0003350036    1.8712684    4.2258488 0.0054446625 
   63400    1.2097815 -0.00028225852    2.5352613    4.2286732 -0.00088928365 
   63600    1.3425479 -0.00038390979    2.3481877    4.2273708 0.0012206785 
   63800    1.8169806 -0.00024728559    1.6818958    4.2254213 -0.00038563138 
   64000    1.6565668 -0.00030102881    1.9098102    4.2287027 0.00067111583 
   64200    1.4201494 -0.00030679991    2.2393948    4.2272972 -0.00091156931 
   64400    1.2872998 -0.00037917045    2.4259397    4.2277803 -0.0012775945 
   64600    1.4255724 -0.00029343025    2.2330115    4.2285194 -0.0021372671 
   64800    1.3766172 -0.00027168566    2.3014305    4.2284228 -0.0027880931 
   65000    1.5613793 -0.00030723624    2.0422883    4.2279121 0.0012600362 
   65200    1.4669085 -0.00035640014    2.1745853    4.2279008 0.00068361022 
   65400    1.3213141 -0.00028615461     2.378748    4.2283016 -0.0046813516 
   65600    1.6554262 -0.00036393405    1.9111152    4.2283479 0.0031645303 
   65800     1.730669 -0.0002141905    1.8043054    4.2270279 -0.0029497368 
   66000    1.4019281 -0.00034953134    2.2648229    4.2271728 0.0023875256 
   66200    1.6080937 -0.00029000547    1.9771292    4.2281703 -0.00097865369 
   66400    1.8169402 -0.00031733647    1.6825753    4.2259743 0.00023302453 
   66600    1.8013406 -0.00031235986    1.7061892    4.2277537 0.0034594867 
   66800    1.6755126 -0.00025198713    1.8815941    4.2270597 -0.0019450058 
   67000    1.5674274 -0.00030344503    2.0335348    4.2276296 0.0014272039 
   67200     1.022535 -0.00037097262    2.8016789    4.2328569 -0.0009880263 
   67400    1.8165231 -0.00030178208    1.6851422    4.2279727 0.00083563231 
   67600    1.8002706 -0.00027113383    1.7076633     4.227771 0.00041092787 
   67800    1.5559673 -0.00030188548     2.053657    4.2317093 0.0041327415 
   68000    1.5477595 -0.00028848487    2.0635092    4.2300841  -0.00164261 
   68200    1.3338766 -0.00034919874    2.3639219    4.2309999 -0.00074426125 
   68400    1.7809233 -0.00030838999    1.7362199    4.2292041  0.004743223 
   68600    1.5444799 -0.0002498643    2.0671695    4.2291914 -0.0026833138 
   68800    1.4306955 -0.00029385877    2.2286786    4.2313584  0.003730609 
   69000    1.6586658 -0.00039048944    1.9070833    4.2288249 0.0039672794 
   69200    1.2147403 -0.00025770153    2.5296754    4.2300541 -0.0033396952 
   69400    1.5228129 -0.00031789645    2.0987503    4.2303704 0.0011980745 
   69600    1.7396375 -0.00028152719    1.7938549    4.2290659 0.0014728616 
   69800    1.8424735 -0.00028322597    1.6488862    4.2280659 7.4552494e-05 
   70000    1.1814146 -0.00031705602    2.5780272    4.2316905 -0.0042919732 
   70200    1.3801403 -0.00037545242    2.2975142    4.2293352 0.0056520893 
   70400    1.6775419 -0.0002445211    1.8829553    4.2312695 -0.0020998603 
   70600    1.9006448 -0.00026734339     1.565379    4.2260145 0.0025233687 
   70800    1.5938566 -0.00028862433    1.9990327    4.2301433 0.00030345728 
   71000    1.5224785 -0.00033984315    2.0993997    4.2305298 0.00083783182 
   71200    1.7641065 -0.00033718919    1.7593257    4.2287376 0.00095867198 
   71400    1.1942631 -0.00034007149    2.5628342    4.2344624 -7.8647817e-05 
   71600    1.5613231 -0.00020427062    2.0449466    4.2305947 -0.0051593353 
   71800    1.5275683 -0.00040537873    2.0939384    4.2321286 0.0034038901 
   72000    1.7350218 -0.00032808628    1.8020042    4.2307067 0.0052370714 
   72200    1.2223851 -0.00028643869    2.5223047    4.2333575 -0.001055299 
   72400    1.7756345 -0.00028013869    1.7454278     4.231036 0.0033554976 
   72600    1.4268241 -0.00029214762    2.2340231    4.2312847 -3.2839581e-05 
   72800    1.4959048 -0.00028935283    2.1374452    4.2314226 -0.002954905 
   73000    1.7665962 -0.0003117309    1.7598657    4.2327887 -0.0013626266 
   73200    1.7627822 -0.0003865969    1.7637495     4.231258  0.001967224 
   73400    1.7891855 -0.00021927817    1.7259703    4.2306107 -0.0038633151 
   73600    1.7012223 -0.00034271016     1.851398    4.2327665 0.0038345087 
   73800    1.3396646 -0.00033998704    2.3586555     4.233846 0.0018055671 
   74000    1.7143795 -0.00038280058    1.8302569    4.2300054 0.0017797812 
   74200     1.475718 -0.00027948362    2.1671485    4.2328742 0.00011667992 
   74400    1.7443536 -0.00027989447      1.79179    4.2336051 0.00088542112 
   74600    1.5063498 -0.00032084875    2.1241626    4.2327315 0.0020014396 
   74800     1.724461 -0.00035710909      1.81748    4.2313683 0.00029452402 
   75000    1.6889753 -0.00035438235    1.8680389    4.2322499 -0.00086176084 
   75200    1.7450001 -0.00028427527    1.7900858    4.2328017 -0.0031163542 
   75400     1.957727 -0.00027814022    1.4912907    4.2318303 0.0013006506 
   75600    1.8790083 -0.00032629641    1.6022097     4.232495 0.0015579446 
   75800    1.2005331 -0.00029646888    2.5546626    4.2351124 -0.0022081274 
   76000    1.4744659 -0.00036142771    2.1703864    4.2342773 0.0057502084 
   76200    1.6987618 -0.00026434342    1.8539859     4.231988 -0.0015879845 
   76400    1.4293707 -0.00025332653    2.2354647    4.2363305 -0.0051213974 
   76600    1.7227508 -0.00030480812    1.8212133    4.2327596 -0.00010890683 
   76800    1.3986386 -0.00040987587    2.2765857    4.2342698 0.0050700985 
   77000    1.5736977 -0.00027016312    2.0314102    4.2343168 -0.0026382142 
   77200    1.7685389 -0.00026674499    1.7575781    4.2332659 0.00058870426 
   77400    1.6641047 -0.0003020166    1.9060105    4.2354551 -8.6953585e-05 
   77600    1.6931681 -0.00038677088    1.8634118    4.2334603 0.0008627985 
   77800    1.4164149 -0.00035852238    2.2539421    4.2365645 -0.0018685609 
   78000    1.4297969 -0.00042700493     2.233392    4.2346807 -0.0006260815 
   78200    1.8910008 -0.00020651792    1.5847201    4.2319148 -0.0067210879 
   78400    1.7999159 -0.00037694537    1.7120583    4.2315635 0.0059643597 
   78600    1.6376507 -0.00030424286    1.9429816    4.2353884 -0.001514115 
   78800    1.4005752 -0.00026978248    2.2771327    4.2376682 -0.0013865068 
   79000    1.4869698 -0.00032826461    2.1549168    4.2363463  0.002077548 
   79200    1.4353488 -0.00021716695    2.2292168     4.238488 -0.0021382153 
   79400    1.1621213 -0.00038127162     2.611928    4.2385165 0.00091989339 
   79600    1.4355034 -0.00028252605    2.2280892    4.2375114 -0.0027219298 
   79800     1.624836 -0.00034738028    1.9591341    4.2335571 0.0020312279 
   80000    1.8698469 -0.00023722086    1.6174016    4.2349501 -0.0001461714 
   80200    1.4396595 -0.00030593279    2.2175009    4.2327183 0.0029082753 
   80400    1.1215975 -0.00023827069    2.6695374    4.2395357 -0.0034523293 
   80600    1.4666808 -0.00045817581    2.1818025    4.2346974 0.0062865949 
   80800    1.5722053 -0.00025769952    2.0363078    4.2371376 -0.0029819962 
   81000    1.9372062 -0.00024680217    1.5211253    4.2329671 -0.0014946798 
   81200     1.892329 -0.00028781198    1.5877268    4.2366997 -0.0004801589 
   81400    1.5136616 -0.00033395434    2.1159517     4.234744 -0.0010968662 
   81600    1.5345581 -0.00042509563    2.0867887    4.2347449 0.0033216654 
   81800    1.4110205 -0.00027057019     2.263071    4.2382292 -0.0014693042 
   82000    1.3441173 -0.0002522109    2.3580188    4.2395308 -0.0021233233 
   82200    1.3942967 -0.00035423338    2.2897576    4.2414188 -0.00077233702 
   82400    1.1567265 -0.00037804396    2.6199909      4.23903 -0.002442193 
   82600    1.6065264 -0.0003609465    1.9880889    4.2368649  0.002841952 
   82800     1.549037 -0.00027908528    2.0709265    4.2392993 0.0030272724 
   83000    2.0373997 -0.00024792566    1.3811826    4.2332942 0.00067217172 
   83200    1.7057647 -0.00035112613     1.850983    4.2387024 0.0015387052 
   83400    1.6077564 -0.00030970114    1.9875271    4.2380763 -0.0030779514 
   83600     1.457838 -0.00034004971    2.1969499     4.237583 -0.0020752496 
   83800    1.5634619 -0.00033082239    2.0499544    4.2384703 0.0020183451 
   84000    1.4780567 -0.00021647208    2.1701103    4.2391732 -0.0030865948 
   84200    1.6472087 -0.00037292956    1.9323942    4.2381135  0.003416524 
   84400    1.6755079 -0.00037888334    1.8938521    4.2391843 0.0015314798 
   84600    1.5249342 -0.00032071915    2.1053601    4.2399473 -0.0010389149 
   84800    1.5682088 -0.00026698898    2.0448513    4.2400766 -0.0013473842 
   85000    1.4166677 -0.00031986341    2.2592894    4.2423043 -0.00031274436 
   85200    1.4379032 -0.00031932811    2.2275759     4.240321 -0.00054929167 
   85400    1.4514266 -0.00036030455    2.2099503    4.2415872 0.00016857331 
   85600    1.2540712 -0.0004105195    2.4856612    4.2409504 0.00055327444 
   85800    1.3545834 -0.00025207369    2.3457965    4.2419612 -0.0060036548 
   86000    1.6408108 -0.0002772988    1.9433794    4.2402372 0.00075085762 
   86200    1.5939825 -0.00029647442    2.0081502    4.2394292 -0.0020166532 
   86400    1.6818788 -0.00034910918    1.8867102    4.2409915 0.0032828897 
   86600    1.9779545 -0.00030646714    1.4685101    4.2373398 0.0045056409 
   86800    1.6052228 -0.00028803038    1.9925685    4.2395924 -0.00014309944 
   87000    1.7699262 -0.00025439358    1.7620942    4.2397365 0.0010590598 
   87200    1.9196672 -0.00031886486    1.5523485    4.2395637 0.0013496324 
   87400    1.3259336 -0.00037269982    2.3865766     4.242511 0.0010174879 
   87600    1.5581118 -0.00034076445     2.059189    4.2402047 -0.0023533942 
   87800    1.6405854 -0.00027075529    1.9450208    4.2415696 0.0026158904 
   88000    2.0092142 -0.00028241097    1.4266622    4.2392797 0.00074641582 
   88200    1.8937158 -0.00034373245    1.5876928    4.2385511 0.00093039648 
   88400    1.8011945 -0.00029785994    1.7184017    4.2397761 -0.0023537825 
   88600    1.6055273 -0.00034506457    1.9935081    4.2409012 0.00018202338 
   88800    1.4384513 -0.00026222283    2.2303257    4.2438953  -0.00232489 
   89000    1.6494201 -0.00029521235    1.9324255    4.2413184 9.584922e-06 
   89200    1.7881174 -0.00026782234    1.7368178    4.2399143 0.00092817274 
   89400    1.6208815 -0.00037074009    1.9730407    4.2419041 0.0024344992 
   89600    1.7269516 -0.00033316355    1.8270784    4.2444776 0.0038857859 
   89800    1.4411835 -0.0002436875    2.2284914    4.2459046 -0.0037985253 
   90000    1.8504136 -0.00025292299    1.6489975    4.2393236 -0.002362221 
   90200    1.6414385 -0.00037027224    1.9435973    4.2412409 0.0011328278 
   90400    1.6122505 -0.00033032937    1.9869156     4.243736 0.0025116872 
   90600    1.9131183 -0.00026750748    1.5645437    4.2426417 -0.00015775759 
   90800    1.6936872 -0.00028224014     1.873429    4.2443089 0.00083291053 
   91000    1.5768173 -0.00027076531    2.0382725     4.245546 0.0017762908 
   91200    1.6323128 -0.00030281815    1.9598871    4.2448222 0.0015519653 
   91400    1.6490803 -0.0003193756    1.9348211    4.2432141 -2.4144694e-05 
   91600    1.6367367 -0.00037237352    1.9546486    4.2457075 0.0037946999 
   91800    1.8960455 -0.00020528128    1.5901128    4.2443712 -0.002160741 
   92000    1.8611365 -0.00035266327    1.6399828    4.2452211  0.005873023 
   92200    1.5222412 -0.00028711611    2.1147977    4.2456482 -0.0019515331 
   92400     1.237296 -0.00042731381    2.5144802    4.2462673 0.0047470432 
   92600    1.7028022 -0.00030990436    1.8622468    4.2458599 0.00018628333 
   92800    1.6405562 -0.00026483358    1.9484594    4.2449732 0.0020579674 
   93000    1.6195084 -0.00023677908    1.9802804    4.2473553 -0.0034188708 
   93200     1.473604 -0.00043043427    2.1835349    4.2461501 0.0082818322 
   93400    1.2807141 -0.00031195866    2.4555803     4.248268 -0.0017125643 
   93600    1.8723202 -0.00022922371    1.6240082    4.2450273 -0.0016830278 
   93800    1.9929266 -0.00030824418    1.4525478    4.2423368 0.0012016177 
   94000    1.4743746 -0.00027692643    2.1814223    4.2452699 -0.0052028255 
   94200    1.4024303 -0.00041690624    2.2853394    4.2483249 0.00029321575 
   94400    1.1507378 -0.00032806519    2.6396507    4.2503556 -0.0024852353 
   94600    1.4799252 -0.00028451096    2.1743716    4.2459823 -0.0029509337 
   94800    1.9755957 -0.00025304641    1.4797896    4.2453705 -0.0020140353 
   95000    1.4714495 -0.00041795436    2.1877319    4.2473432 0.0054883947 
   95200    2.0468367 -0.0002936287    1.3757074    4.2409852  -0.00237344 
   95400    1.8710402 -0.00031595935    1.6278661    4.2470064 0.00091280144 
   95600    1.4130608 -0.00024233473    2.2711631     4.249206 0.00094195596 
   95800    1.5137775 -0.00030394946    2.1311667    4.2501513 0.0055192898 
   96000    1.1377968 -0.00027636789    2.6579955    4.2506348 -0.0031646293 
   96200     1.653268 -0.00036637001    1.9341896    4.2483985 0.0020490438 
   96400    1.8756963 -0.00026163634    1.6208002    4.2465133 0.0026404104 
   96600    1.3148427 -0.00025243922    2.4094488    4.2499761 -0.00099769703 
   96800    1.3319214 -0.00027608935     2.386901    4.2513149 -0.0028255151 
   97000     1.683535 -0.00038121898    1.8922616    4.2488294 0.0040971066 
   97200    1.5396627 -0.00030272578    2.0937196    4.2489446 -0.0004747106 
   97400    1.8957359 -0.00027222485    1.5933724    4.2471305 0.0022594257 
   97600     1.398259 -0.00032594362    2.2922887    4.2495254 -0.0010715781 
   97800    1.3245698 -0.00030352887    2.3973084    4.2514025 0.00022960617 
   98000    1.6363425 -0.00035595498    1.9584882    4.2490117 -0.0019701692 
   98200    1.4616099 -0.00031659961    2.2070716    4.2530089 0.00034467137 
   98400    1.2221073 -0.00024153872    2.5434407    4.2541494 -0.0055193438 
   98600    1.7095019 -0.00032166999    1.8560233    4.2490043 0.0025524285 
   98800    1.2594025 -0.00041194373    2.4912171    4.2539686 0.0020117695 
   99000    1.4756249 -0.00031898621    2.1859899    4.2515458 -0.0038716517 
   99200    1.7065372 -0.00032195275    1.8643932    4.2532233 0.0010507821 
   99400    1.4244994 -0.00026920158    2.2575988    4.2516288 -0.0042529105 
   99600    1.3410331 -0.00032929776    2.3749814    4.2520983 -0.0018068693 
   99800    1.2032563 -0.0003578501    2.5686432    4.2528442 -0.0019840476 
  100000    1.2502933 -0.00043757658    2.5035915    4.2535645 0.0057280582 
  100200     1.490194 -0.0002274112    2.1661061    4.2521503 -0.004685006 
  100400    1.7084647 -0.00032666726    1.8617114    4.2532353  0.004101555 
  100600    1.3196635 -0.00025901737    2.4057921    4.2530619 -0.0049011754 
  100800    1.5726729 -0.00043885561    2.0502712    4.2515744 0.0029767624 
  101000     1.701896 -0.00035125221    1.8678817    4.2501848 0.0032332247 
  101200    1.6591632 -0.00024492152    1.9319717    4.2545552 -0.001177801 
  101400    1.8806517 -0.00031310291    1.6197325    4.2523317 0.0037647529 
  101600    1.5942666 -0.00029041712    2.0222852     4.253968 -0.0034296851 
  101800    1.5607644 -0.00046786119    2.0688214    4.2534237 0.0056293765 
  102000    1.7267439 -0.00030377711    1.8370471    4.2541849 0.00077494305 
  102200    1.8206558 -0.00023329385     1.704632    4.2533168 -0.0017851165 
  102400    1.8139202 -0.00037711896    1.7131051    4.2522162 0.0056016394 
  102600    1.3989199 -0.00026999134    2.2959511    4.2541689 -0.0038221915 
  102800    1.6930444 -0.0003298545    1.8822516    4.2521838 -0.00065493199 
  103000    1.8490834 -0.00034262735    1.6652788    4.2536529 0.0045247498 
  103200    1.5068973 -0.00020740072    2.1458249    4.2552737 -0.0039266601 
  103400      1.60895 -0.00034172005    2.0042193    4.2564076 0.0026347603 
  103600    1.6577726 -0.00036162155    1.9343609     4.254881 0.0028644492 
  103800    1.5428736 -0.00026822431    2.0957632     4.255518 -0.00053216284 
  104000    1.7538768 -0.00026766939    1.7997865    4.2549464 -0.0028447808 
  104200    1.5054417 -0.0003443972    2.1492369    4.2565109 0.0041900418 
  104400    1.7382327 -0.00032288336    1.8220185    4.2552213 -0.002155139 
  104600    1.4521741 -0.00023153488    2.2224779    4.2552901 -0.0036781151 
  104800    1.6296974 -0.00035367344    1.9739816    4.2552043 0.0036557973 
  105000     1.627742 -0.00025563676    1.9776916    4.2562747 0.00044446795 
  105200    1.6822676 -0.00030519259    1.8996816     4.254551 -0.0025229222 
  105400    1.8234839 -0.00030034138    1.7007402    4.2533173 0.00049259114 
  105600    1.8016947 -0.0003778336    1.7336753    4.2556701 0.0043462641 
  105800    1.3367209 -0.00021737874    2.3872462     4.258438 -0.0025111034 
  106000    1.4755074 -0.00035389242    2.1918935    4.2572499 0.0031493955 
  106200    1.7433764 -0.00039923055     1.816898    4.2572258 0.0052131014 
  106400    1.8416453 -0.00026469058     1.678245    4.2562837 -0.001324728 
  106600    1.8370671 -0.00026487176    1.6845943    4.2562235 -0.0031060417 
  106800    1.5392913 -0.00029477964    2.1039442    4.2586572 0.00010539499 
  107000    1.5883498 -0.0003999717    2.0323776    4.2556673 3.6178016e-05 
  107200    1.4333123 -0.00023440039    2.2536208    4.2600237 -0.0027534374 
  107400    1.6756775 -0.00050900367    1.9113596    4.2567992 0.0075781348 
  107600    1.5072357 -0.00016429996    2.1487074     4.258673 -0.0085810388 
  107800     1.249178 -0.00053526157     2.510698     4.259012 0.0060237413 
  108000    1.6533178 -0.00029014163    1.9436723     4.258027 -9.0264194e-05 
  108200    1.7496594 -0.00041880545     1.808018    4.2571223 0.0034938127 
  108400    1.3536535 -0.00021862109    2.3662292    4.2611256 -0.003564503 
  108600    1.7228047 -0.00037981888    1.8473806    4.2589273 0.0046457349 
  108800    1.5118123 -0.00029779643    2.1428502    4.2590896 -0.0013356099 
  109000    1.8858424 -0.00034353046    1.6187478    4.2585836 0.0013010147 
  109200    1.5163384 -0.00041513645     2.137023    4.2594817 0.0066353148 
  109400    1.8218179 -0.00021861169    1.7102209    4.2605474 -0.0039012299 
  109600     1.704655 -0.00042487861    1.8745701    4.2606623 0.0041105616 
  109800     1.626462 -0.00029304639    1.9852772    4.2620309 -1.6985174e-05 
  110000    1.6703469 -0.00057772213    1.9221073    4.2600152 0.0066116672 
  110200    1.6908225 -0.00024398246    1.8936489    4.2605564 -0.003857581 
  110400    1.7885345 -0.00040198729    1.7541909    4.2577373 -0.00040008218 
  110600    1.3334537 -0.00030082572    2.3952817    4.2618161 -0.0062791949 
  110800    1.6057116 -0.00044355533    2.0126155    4.2601682 -0.00062440961 
  111000    1.3978019 -0.00033664758    2.3067755    4.2633614 -0.00049209129 
  111200     1.656948 -0.00026542052    1.9394557    4.2589176 -0.00081207094 
  111400    1.7783215 -0.00028432319    1.7727416    4.2621074 0.0036043034 
  111600    1.7968676 -0.00031167668    1.7475603    4.2628632 0.0045550111 
  111800    1.2867143 -0.00024971914    2.4625673    4.2637176 -0.0074863501 
  112000    1.8303417 -0.00036457702    1.7023303    4.2644442 0.0030436702 
  112200    1.2919237 -0.00033129563    2.4582902     4.266652 0.00058126137 
  112400    1.4754659 -0.00022694364    2.1983035    4.2637288 -0.0039658678 
  112600    1.6028523 -0.00035999936    2.0199754    4.2636087 0.0053320008 
  112800    1.8771197 -0.00029118642    1.6360086    4.2636849 0.00059521854 
  113000      1.22129 -0.00034218595    2.5554156    4.2648794 -0.00015086083 
  113200    1.6446413 -0.00021693569     1.961999    4.2642799 -0.0050592171 
  113400    1.5857391 -0.0004660941    2.0411394     4.260708 0.0072753984 
  113600    1.7071958 -0.00022187334    1.8728443    4.2626966 -0.0053366865 
  113800    1.6285627 -0.0003814367    1.9840125    4.2636188 0.0020955205 
  114000    1.8445114 -0.00029358551    1.6836523    4.2656747 -0.001044248 
  114200    1.0666807 -0.00047898699    2.7745064    4.2673803 -0.00024295154 
  114400    1.5166061 -0.00027170949    2.1432792     4.266256 -0.0041654892 
  114600    1.6103274 -0.00037466457     2.009673    4.2637566 0.00093006325 
  114800    1.7478047 -0.00025850363    1.8169177    4.2635858 -0.0012469551 
  115000    1.4717191 -0.00037970858    2.2047818    4.2648089 -0.0016288405 
  115200    1.3486666 -0.00033859341    2.3799418    4.2677365 0.00060911709 
  115400    1.5064409 -0.00028885654    2.1584028    4.2671312 -0.0051104676 
  115600    1.5122865 -0.00036656722    2.1508969    4.2677314 0.0033564537 
  115800    1.6080569 -0.00026675718    2.0159828    4.2669958  -0.00362244 
  116000    1.7878909 -0.00034545549    1.7653207    4.2680225 0.0030305132 
  116200    1.5384717 -0.00031954646    2.1143539    4.2678947 0.0016672228 
  116400    1.4304045 -0.00033937478    2.2645338    4.2667607 -0.0022494936 
  116600    1.6649812 -0.00023614422    1.9344884     4.265226 -0.0029911263 
  116800    1.1850206 -0.00032412534    2.6115298    4.2702345 -0.0025334035 
  117000    1.8088816 -0.00037910058    1.7353907    4.2674458  0.005033482 
  117200    1.6888216 -0.00025005702    1.9045991    4.2686993 -0.0031137408 
  117400    2.0107487 -0.00032048494    1.4533775    4.2681052 0.0023659386 
  117600    1.9576106 -0.00025483968    1.5285636    4.2689636 -0.0010173323 
  117800    1.3758983 -0.00039007295     2.342803    4.2686705 -0.0042023403 
  118000    1.8328346 -0.00027417638    1.7042039    4.2698982 -0.00024347818 
  118200    1.2618459 -0.00040156127    2.5040494     4.270232 0.0044018039 
  118400    1.3989845 -0.00020459432    2.3110301    4.2694038 -0.0031364958 
  118600    1.6600236 -0.00041313499    1.9447485    4.2683683 0.0031774925 
  118800     1.812003 -0.00025146102     1.731456    4.2680087 -0.0020405634 
  119000     1.413865 -0.00033343025    2.2908486    4.2699262 2.2206067e-05 
  119200    1.3286088 -0.0003413439    2.4112985    4.2710095 0.0014549315 
  119400    1.7384939 -0.00022509841    1.8362854    4.2699517 -0.0045840208 
  119600    1.3696468 -0.00039927241    2.3523287     4.269435 -0.00039689604 
  119800    1.5492642 -0.00025293697    2.1037241    4.2724411 -0.0031812697 
  120000    1.2854983 -0.00037295111     2.472734    4.2720586 0.00035890944 
  120200    1.8554516 -0.00028624225    1.6746845    4.2720306 0.0014587198 
  120400    1.2386479 -0.00046383109    2.5381842    4.2718274 0.0025126837 
  120600    1.5225027 -0.00021522061    2.1423187    4.2736073 -0.0042585734 
  120800    1.3348545 -0.00041213018    2.4023575    4.2707417  0.004396946 
  121000     1.831004 -0.00023104664    1.7078088    4.2709833 -0.0036607723 
  121200    1.1050768 -0.00033949593    2.7256318    4.2723999 -0.0012570589 
  121400    1.8553987 -0.00028410974    1.6746025    4.2718766 -0.00054147057 
  121600    1.1064463 -0.00032269853    2.7264546    4.2751567 -0.001989249 
  121800    1.4161518 -0.00027514276    2.2921807     4.274518 -0.0017666994 
  122000    1.1680586 -0.00027588707    2.6401121    4.2751183 -0.0037446825 
  122200    2.1639933 -0.00030546249    1.2417354    4.2710205 0.0055049181 
  122400    1.4286312 -0.00029129697    2.2736576      4.27345 0.0016060879 
  122600    1.7829768 -0.00028482416    1.7776726    4.2735554   0.00435943 
  122800    1.4846798 -0.00025260661    2.1955165    4.2738157  0.001011649 
  123000    1.3524865 -0.00033014974    2.3827252    4.2758762 0.0041442872 
  123200    1.2323268 -0.00024157374    2.5507652    4.2757812 -0.0012811026 
  123400    1.6392991 -0.0003409152    1.9808645    4.2755424 0.0062333528 
  123600    1.8429784 -0.00022437376    1.6932973    4.2732427 -0.00012545239 
  123800    1.8888462 -0.00032935299     1.630236    4.2742913 0.0050680554 
  124000    1.5631751 -0.00026042901    2.0883541    4.2765388 -0.002815132 
  124200    1.9478695 -0.00038889587    1.5453718    4.2720003 0.0024337214 
  124400    1.5759393 -0.00023176033    2.0696848     4.275768 -0.0037036191 
  124600    1.6039326 -0.00036635925    2.0311219    4.2762612 0.0037976137 
  124800    1.6066599 -0.00023529788    2.0261749    4.2752636 -0.0024840761 
  125000    1.2573715 -0.00039164521    2.5177777    4.2777062 0.00016768768 
  125200     1.370984 -0.00028246554    2.3579661    4.2770612 0.00022282919 
  125400    1.5352467 -0.00030033328     2.127723     4.276768 -0.0024398177 
  125600    1.6460265 -0.00026681294    1.9732756    4.2774459 -0.0012144807 
  125800     1.571033 -0.00040722879    2.0790861    4.2781251 0.0023680845 
  126000    1.5917352 -0.00024468887     2.049171    4.2773557 -0.0055548046 
  126200    1.6842316 -0.00037099337    1.9194342    4.2769874 0.0024104082 
  126400    1.6011012 -0.00024122101    2.0366814    4.2779818 -0.0027556098 
  126600    1.6908898 -0.00039493248    1.9121566    4.2790074  0.006358384 
  126800    1.4717517 -0.00024329884    2.2185847    4.2787938 -0.0036969474 
  127000    1.3222538 -0.00034320686    2.4270393    4.2778514 0.0033294139 
  127200    1.6654196 -0.00023571834    1.9475321    4.2788838 -0.00034201935 
  127400     1.534723 -0.00032950582    2.1301565    4.2784392 0.0033427662 
  127600    1.8348425 -0.00029400985    1.7089721    4.2774576 0.0018997103 
  127800    1.6958309 -0.00042078228    1.9047449    4.2784874 0.0061405578 
  128000    1.6323181 -0.00021953832    1.9937078    4.2787336 -0.0075875659 
  128200    1.4333898 -0.00038155793    2.2747321    4.2810963 0.0038322118 
  128400    1.6733394 -0.00021410726    1.9351266    4.2775876 -0.0085877706 
  128600    1.0823256 -0.00048173769    2.7663923    4.2811664 0.0047137051 
  128800    1.3128999 -0.00022380576    2.4430605    4.2808965 -0.0078444702 
  129000     1.525377 -0.00032853167    2.1464907      4.28169 0.0014346449 
  129200    1.3982589 -0.00022989187    2.3237428    4.2810753 -0.0075647784 
  129400    1.4178521 -0.00037427855    2.2980713      4.28269 0.0022815024 
  129600    1.7225004 -0.00030054905     1.871657     4.282857  0.001282652 
  129800    1.3671591 -0.00032440616    2.3690851    4.2827835 0.0036885828 
  130000    1.6050325 -0.00025068831    2.0348727    4.2816675 -0.0031357631 
  130200     1.126933 -0.00036079246    2.7061287    4.2834741  0.003479872 
  130400     1.520573 -0.0002597559    2.1523299    4.2808723 -0.0054458581 
  130600   0.99621911 -0.00036119159    2.8884523    4.2827978 0.0012762314 
  130800    1.5826058 -0.00023896878    2.0662599    4.2816692 -0.0043947408 
  131000    1.3426237 -0.00034488754    2.4047101    4.2840384 0.0018551627 
  131200    1.4976665 -0.00024550955    2.1866907    4.2831783 -0.0036492435 
  131400    1.6423228 -0.0004126076    1.9821716    4.2810109 0.0022504403 
  131600    1.9329898 -0.00024983376    1.5773491     4.283285 0.00051366263 
  131800    1.4951785 -0.00032645133    2.1916792    4.2846027 -0.0014785512 
  132000    1.9206747 -0.00027865902    1.5940131     4.282679 -0.0031234744 
  132200    1.4239157 -0.00041823413    2.2899438    4.2830076 -0.000227711 
  132400    1.0933109 -0.00026217275    2.7552823    4.2856554 -0.0056171707 
  132600    1.4977411 -0.00033850232    2.1883437    4.2848428 -0.002478381 
  132800    1.6249839 -0.00025586764     2.010618    4.2853396 -0.0022422061 
  133000    1.0683765 -0.0004976289    2.7932105      4.28844 0.0025681594 
  133200    1.5382721 -0.00023209187    2.1309324    4.2842812 -0.0046626552 
  133400    1.5405363 -0.00034987144    2.1293075    4.2857083 0.0015112227 
  133600      1.81285 -0.00023388078    1.7484798    4.2862359 4.4631134e-05 
  133800    1.5198442 -0.00042704198    2.1568529    4.2842078  0.005827834 
  134000    1.3475312 -0.00025543057    2.4005915    4.2868798 -0.0028672043 
  134200    1.4444816 -0.00039406331    2.2642657    4.2861459 0.0055624338 
  134400    1.5282476 -0.00022877194    2.1482541    4.2875719 -0.0061989012 
  134600    1.6469007 -0.00037517747    1.9786371    4.2839229 0.0026580577 
  134800    1.5870166 -0.00025969271    2.0642604    4.2858239 -0.0043306178 
  135000    1.3802066 -0.00041110154    2.3531328    4.2850109 0.0060268736 
  135200    1.8308568 -0.0002985839    1.7247114    4.2876123 0.00015255827 
  135400    1.7714234 -0.00029467557    1.8081777    4.2878757 0.0030399441 
  135600    1.6682793 -0.00025290167    1.9531901    4.2885282 -0.0031252478 
  135800    1.6105045 -0.00043422451    2.0337617    4.2880339 0.0054208122 
  136000    1.4788146 -0.00028319687    2.2187955    4.2888527 -0.0027444851 
  136200      1.73055 -0.0003190548    1.8652211     4.287672 -0.0015129041 
  136400    1.5330006 -0.00029087342    2.1446962    4.2906061 0.00079742703 
  136600    1.2570104 -0.00042162812    2.5316612    4.2910542 -0.0018076677 
  136800    1.2375525 -0.00028361223    2.5583719    4.2906619 -0.0070579213 
  137000    1.7598855 -0.00037515561    1.8266637    4.2901282 -0.00072009961 
  137200    1.5834506 -0.00030146452    2.0740723    4.2906016 -0.0025623579 
  137400    1.5865574 -0.00034283262    2.0681696    4.2890071 -0.0015563032 
  137600      1.61935 -0.00030368226    2.0257026    4.2924889 0.0013906583 
  137800      1.37272 -0.00042222482    2.3716267    4.2930125 0.0035597223 
  138000    1.3646943 -0.00039710663    2.3817455    4.2919203 0.0022925251 
  138200    1.3332989 -0.00025851024    2.4256377    4.2919977 -0.0059826197 
  138400    1.7409766 -0.00029728129    1.8542776    4.2913475 0.0010012005 
  138600    1.4190668 -0.00038861866    2.3035608    4.2898657 -0.0014992804 
  138800    1.2754778 -0.00064577283    2.5078541    4.2928773  0.001350224 
  139000     1.569882 -0.0002103629     2.091563    4.2891874 -0.008569911 
  139200    1.8456985 -0.00039827488    1.7087205    4.2923002 0.0053387877 
  139400    1.9662517 -0.00026678283    1.5377454     4.290231 -0.0033948522 
  139600     1.196814 -0.0005672618    2.6186245    4.2935968 -0.0037241316 
  139800    1.7808605 -0.00025760595    1.7979393    4.2908865 -0.0038025621 
  140000    1.2899408 -0.00051299308    2.4905099    4.2959141 0.0039871656 
  140200    1.6364098 -0.00018706691    2.0041463    4.2949329 -0.0076832421 
  140400    1.3315077 -0.00054326918     2.430432    4.2939995  0.001767644 
  140600    1.4727392 -0.00036251646    2.2327738    4.2942461 -0.00055487626 
  140800    1.5754486 -0.00031041187    2.0881106    4.2934282 -0.0038134495 
  141000    2.0462961 -0.00028298135    1.4282315     4.292763 0.0028106306 
  141200     1.464021 -0.00025944115    2.2484249    4.2977948 -0.00030212884 
  141400    1.4767667 -0.00031952515    2.2279824    4.2951362 -0.0012178754 
  141600    1.7785507 -0.00033823527     1.806115    4.2957477 0.0057453601 
  141800    1.4792201 -0.00043450561    2.2252031    4.2956768  0.004167498 
  142000     1.593423 -0.00019314167    2.0637548    4.2943538 -0.0059234954 
  142200    1.4907573 -0.00042746398    2.2086818    4.2953144 0.0017295427 
  142400    1.2656972 -0.00022148614    2.5257438    4.2974984 -0.0049726187 
  142600    1.3216512 -0.00031731888    2.4468757      4.29687 -0.0018120417 
  142800    2.1127821 -0.00026737554    1.3398678    4.2974954 0.0013478168 
  143000    1.5611574 -0.00047988354    2.1130899    4.2982303 0.0049676416 
  143200    1.4028949 -0.00024098458    2.3343766    4.2981885 -0.0070141878 
  143400    1.8203512 -0.00037103479    1.7472163    4.2953369 0.0025476007 
  143600    1.6409474 -0.00022415594    1.9994376    4.2965397 -0.0073036026 
  143800    1.3268942 -0.00040503356    2.4415992     4.298846 0.0053475696 
  144000    1.6020313 -0.00022241715    2.0568478    4.2994692 -0.0042013211 
  144200    1.6559367 -0.00040334138    1.9800633    4.2979713 0.0067251022 
  144400    1.6733628 -0.0002293006    1.9563778    4.2988564 -0.0030644856 
  144600    1.6956868 -0.00035496829    1.9242096    4.2978162  0.003501453 
  144800    1.7966214 -0.00026163528    1.7817294    4.2967377 -0.0044656807 
  145000    1.4405655 -0.00033723486    2.2851736     4.301628 3.0549364e-05 
  145200     1.582662 -0.0002287156    2.0843594    4.2998576 -0.0027969262 
  145400    1.9125524 -0.00033856957    1.6222158    4.2994507 0.0053493157 
  145600    1.5467487 -0.00022103032    2.1368271    4.3020542 -0.00012722787 
  145800    1.2076072 -0.00036405506    2.6123128    4.3025988 0.0048059353 
  146000    1.3744968 -0.00020596758    2.3780542    4.3021438 -0.00083894345 
  146200    1.2781319 -0.00033143266    2.5123243    4.3013776 0.0020961539 
  146400    1.4913829 -0.00022918177    2.2138978    4.3016047 -0.0020920299 
  146600    1.5576449 -0.0003284585    2.1183686     4.298743 -0.0023998196 
  146800     1.716843 -0.00025378438    1.8992033    4.3025298 -0.00051185534 
  147000    1.8039454 -0.00035959137    1.7717986    4.2969626 0.0030455801 
  147200    1.7250871 -0.00021510275    1.8876465    4.3025533 -0.0031033888 
  147400    1.5559156 -0.00038486553     2.124589    4.3024859 0.0025789191 
  147600    1.4081349 -0.0002552119    2.3319052    4.3030388 -0.0055570475 
  147800    1.3345808 -0.00032187345    2.4339765    4.3020678 -0.0020328511 
  148000    2.1042617 -0.00028630506    1.3526273    4.2983073 0.0011581452 
  148200    1.1583907 -0.00036127921    2.6851211    4.3065068 0.0045194681 
  148400   0.99321259 -0.00020016983    2.9159731    4.3062706 -0.007015338 
  148600    1.7723396 -0.00036494431    1.8219949    4.3029054 0.0069303672 
  148800    1.6591544 -0.00026175172     1.982714    4.3052684 -0.0028961817 
  149000    1.4281363 -0.00032414395     2.303682    4.3027488 -0.0042871218 
  149200    1.6437235 -0.00027660601    2.0056551    4.3065914 -0.0013011089 
  149400    2.1162484 -0.00035178955    1.3401781    4.3025741 0.0046713501 
  149600    1.4024974 -0.00022650076    2.3401366    4.3034064 -0.0033735771 
  149800    1.6408905 -0.00036558595    2.0104493    4.3073304 0.0041829407 
  150000     1.579624 -0.00029665496    2.0935317    4.3047086 0.0021920923 
  150200    1.9529225 -0.00022153517    1.5685452    4.3024151 -0.0048497861 
  150400     1.155167 -0.00034721926    2.6915149    4.3084014 0.0034696153 
  150600    1.5313792 -0.00023208253     2.163647    4.3073457 -0.0031724572 
  150800    1.6983322 -0.00035521025    1.9277926    4.3051025 0.0023624362 
  151000    1.6625531 -0.00031252995    1.9797379    4.3069997 0.00090230381 
  151200    1.2107198 -0.00041449691    2.6182761    4.3128693 0.0018360284 
  151400    1.5865159 -0.0001945363    2.0852759    4.3062036 -0.0050978828 
  151600    1.6001677 -0.00045363955    2.0663771    4.3061583 0.0071408837 
  151800    1.5003798 -0.0002061344    2.2088109    4.3091365 -0.0059203014 
  152000     1.085501 -0.00036322275    2.7904541    4.3097923 -0.002696829 
  152200    1.9228888 -0.00027316468    1.6159577    4.3077288 0.00073575337 
  152400    1.4733843 -0.00032604737    2.2465025    4.3089145 0.0003039729 
  152600    1.5666481 -0.00023159305    2.1148913    4.3079671 -0.0033952295 
  152800     1.871146 -0.0003785016    1.6887566    4.3079825 0.0047517534 
  153000    1.9917165 -0.00023736727    1.5175059    4.3056716 -0.0029331494 
  153200    1.7796344 -0.00042253907    1.8171506    4.3082162 0.0054269175 
  153400     1.365814 -0.00035426764    2.4001342    4.3119195 0.0016959486 
  153600    1.4239417 -0.00024413766    2.3174072    4.3106815 -0.0046244331 
  153800    1.6544418 -0.00034512746    1.9897691    4.3056425 0.0024342728 
  154000    1.5595433 -0.00022262787    2.1293622    4.3125001 -0.0042703214 
  154200    1.5335218 -0.00036824967    2.1648319    4.3113941 0.0022264971 
  154400    1.6772477 -0.00022547895    1.9640608    4.3119821 -0.0025015791 
  154600    1.5036646 -0.00041078827    2.2076959    4.3124156 0.0061908739 
  154800    1.8941278 -0.00023114412    1.6595393    4.3110871 -0.0033910323 
  155000    1.2231494 -0.00041909334    2.6035524    4.3155425 0.0032067424 
  155200    1.6538209 -0.00030006561    1.9974972    4.3125464 -0.002651225 
  155400    1.7944913 -0.00034201189    1.7986265    4.3105723 0.0032238731 
  155600    1.6387216 -0.00022014166    2.0189529    4.3129431 -0.0065848423 
  155800    1.3964092 -0.00036451862    2.3608869    4.3154953 0.0077936803 
  156000    1.2619176 -0.00024852522    2.5481934    4.3146295 -0.0071316318 
  156200    1.2828213 -0.0003009087    2.5196628    4.3153116 -0.0023293507 
  156400    1.6487689 -0.00034671765    2.0060909    4.3140206 0.0037560828 
  156600    1.7046474 -0.0002564942    1.9280283    4.3142782 -0.0015257631 
  156800    1.7093399 -0.00027097299    1.9208385    4.3136433 -0.0013400893 
  157000    1.7361021 -0.00034010296    1.8849201    4.3151229 0.0027475846 
  157200    1.4420649 -0.0003900115    2.2978859    4.3163868 0.0013849957 
  157400     1.479874 -0.00020869714    2.2460316    4.3176466 -0.0035542829 
  157600     1.613993 -0.00040575451    2.0579028    4.3170872 0.0049826069 
  157800    1.4602763 -0.0002036344    2.2727547    4.3169379 -0.0047397061 
  158000     1.703868 -0.00038817452    1.9301323    4.3151593 0.0012993312 
  158200    1.4579225 -0.00029356205    2.2770426    4.3178405 8.8501844e-05 
  158400    1.2346262 -0.00034005224    2.5904453     4.318582 0.0019537133 
  158600    1.7912384 -0.00023338279    1.8076685    4.3151688 -0.0015441925 
  158800    1.4842195 -0.0003976136    2.2393946    4.3169042 0.0020431449 
  159000    1.1412624 -0.0002655101    2.7237102     4.321212 -0.0066139875 
  159200     1.548305 -0.00033800932    2.1520691     4.319358 0.0012698448 
  159400    1.4718769 -0.00035652877     2.257642    4.3179132 0.00097308012 
  159600    1.3962659 -0.0002332962    2.3632904    4.3178294 -0.004153188 
  159800    1.3294751 -0.00035296881    2.4575863    4.3184984 0.0010692083 
  160000     1.379322 -0.00028126349     2.387246    4.3180156 -0.0009529793 
  160200    1.1356741 -0.00029007458    2.7305969    4.3202506 -0.004619154 
  160400    1.8677017 -0.00029016232    1.7053634    4.3198556 0.0022247901 
  160600    1.5614733 -0.00031987368    2.1352198    4.3209625 -0.00060383717 
  160800    1.7933826 -0.00033187452    1.8100948    4.3204985  0.001051721 
  161000    1.6855364 -0.00030521748    1.9606486    4.3200944 -0.00032906109 
  161200    1.5613055 -0.00027232305    2.1356939    4.3212493 -0.0027867482 
  161400    1.2045308 -0.00027429293    2.6352504    4.3213192 -0.0030047332 
  161600    1.9608861 -0.00032856914    1.5731402    4.3180522 0.0021866585 
  161800    1.2143617 -0.00022592166     2.623375    4.3232554 -0.0052289864 
  162000      1.81255 -0.00039904195    1.7840666    4.3212375 0.0057466878 
  162200    1.7579907 -0.00024590786    1.8629154    4.3238565 -0.0020154783 
  162400     1.656482 -0.00031446562     2.003008    4.3217684 0.0015441493 
  162600    1.6847398 -0.00037018426     1.963903    4.3221686 0.0035755283 
  162800    1.8223295 -0.00025019029    1.7714925    4.3225036 -0.0021108812 
  163000    1.4502272 -0.00027859914    2.2949205      4.32496 -0.0026827125 
  163200    1.7954074 -0.00029405469    1.8085939    4.3218701 0.0010686485 
  163400    1.4644245 -0.00040537274     2.271497    4.3212859 -0.0010132404 
  163600    1.6303966 -0.00021201874    2.0417216    4.3240649 -0.0043623487 
  163800    1.8218766 -0.00042025165    1.7737837    4.3239907 0.0064173694 
  164000    1.2197302 -0.00021816105    2.6200925    4.3274966 -0.0055634734 
  164200    1.7467425 -0.0003909666    1.8801532    4.3252017 0.0038913552 
  164400    1.6818794 -0.00034194434      1.97157    4.3258592 0.0028846493 
  164600    1.7683456 -0.00028129789    1.8516079    4.3270105 0.00025259861 
  164800    1.5689022 -0.00026249925     2.129763    4.3259637 -0.0038445804 
  165000    1.7816574 -0.00031546065    1.8321119    4.3261168 0.0041969352 
  165200    1.6633945 -0.00040888391    1.9988179    4.3271613 0.0023331602 
  165400    1.6482331 -0.00021983384    2.0191926    4.3264991 -0.0063182648 
  165600    1.7715595 -0.00044241203    1.8432468    4.3229877 0.0059417967 
  165800    1.9143149 -0.0001938717      1.64643    4.3262769 -0.0058957372 
  166000     1.333177 -0.00039414977    2.4625258    4.3285795 0.0021316065 
  166200    1.9527656 -0.00033451326    1.5936761    4.3272134 0.0004782645 
  166400    1.5780321 -0.0002784195     2.116927    4.3258935 -0.0012891451 
  166600    1.7760096 -0.00025471911    1.8424157    4.3285744 -0.0026364041 
  166800    1.8578747 -0.00033119025    1.7285829    4.3292763 0.0035655231 
  167000    1.8272057 -0.0003530383    1.7688183    4.3265532 0.0045977734 
  167200    1.3622085 -0.00023345472    2.4238065    4.3306649 -0.0031339396 
  167400      1.73164 -0.00036443943    1.9058549    4.3297864 0.0053736774 
  167600     1.049068 -0.00023140203    2.8634242     4.331888 -0.0056707411 
  167800    1.5173664 -0.00032238393    2.2060154     4.330006 0.0014227977 
  168000    1.5951692 -0.00030889925    2.0970677    4.3299957 0.0036638945 
  168200    1.8210907 -0.00027108477    1.7799077    4.3291636 -0.0018028746 
  168400    1.7634414 -0.00033460762    1.8625813    4.3310647 0.00044644321 
  168600    1.7557069 -0.00031617529    1.8738183    4.3314918 -0.0016427071 
  168800    1.4569792 -0.00027304106    2.2952465    4.3347444 -0.0020049964 
  169000    1.5040434 -0.00035941587    2.2270286    4.3323299  0.001012434 
  169200     1.692214 -0.00026676525    1.9624692    4.3313019 -2.9469383e-05 
  169400    1.5807515 -0.00030289982    2.1194609    4.3322101 -0.00041658205 
  169600    1.8671716 -0.00031586332    1.7185844    4.3323087 0.0026086545 
  169800    1.2555294 -0.00029231155    2.5775148    4.3349637 -0.0036444543 
  170000    1.3332128 -0.00028471928    2.4691723    4.3353855 -0.0025794038 
  170200    1.4617894 -0.00032351515    2.2892903     4.335472 0.00056014383 
  170400    1.9339757 -0.00025881051    1.6265934    4.3339005 -0.00063995523 
  170600    1.6222916 -0.00038095331    2.0632783    4.3341056 0.0039937687 
  170800    2.0246997 -0.00027983402    1.4986846    4.3329844  0.001458772 
  171000    1.3585405 -0.00028458544    2.4328997    4.3345718 -0.0022838901 
  171200     1.527767 -0.00028116075    2.1960081    4.3346008 -0.0024228661 
  171400    1.4622725 -0.00033594306    2.2863323    4.3331779 7.2304356e-05 
  171600    1.4405477 -0.00024637505    2.3241251    4.3406455 -0.0059236195 
  171800    1.4289703 -0.00036215672    2.3386833    4.3388795 -6.2428393e-05 
  172000    1.7791766 -0.0002544674     1.845392    4.3359848 -0.0018918577 
  172200    1.6955748 -0.00030231496    1.9606373    4.3341397 -0.00010787278 
  172400    1.6857572 -0.00034688494     1.975813    4.3355262 0.0040664331 
  172600    1.2671493 -0.00026147903     2.565349    4.3390966 -0.0031396209 
  172800     1.239584 -0.00031177401    2.6058806    4.3409864 0.0034190215 
  173000    2.0117461 -0.00026960321    1.5187346    4.3349096 -0.00068496438 
  173200    1.3142596 -0.00032414853    2.5028542    4.3424935 -0.0020795049 
  173400    1.6574132 -0.00031757688    2.0198198    4.3398807 -0.0011927415 
  173600    1.7059638 -0.00036141604    1.9489928    4.3369807 0.0014943135 
  173800     1.906816 -0.00024723407    1.6699222    4.3392173 -0.0037701202 
  174000    1.7072002 -0.00033159837    1.9483016    4.3380502 0.0029865051 
  174200    1.7922385 -0.00030324572    1.8289744    4.3378051 0.0041543398 
  174400    1.4158841 -0.00024691839    2.3584647    4.3404555 -0.0034643177 
  174600    1.6463489 -0.00029178376    2.0359972    4.3405939 0.0018812091 
  174800    1.6481432 -0.00033225854    2.0337952    4.3408634 0.0031792704 
  175000    1.5124745 -0.0002709012    2.2245527     4.341746 -0.0028199528 
  175200    1.7120315 -0.00029375622     1.946744    4.3432943  0.001069005 
  175400    1.7427502 -0.00035999329     1.902743    4.3422333 0.0033458301 
  175600    1.6151337 -0.00030638771    2.0818862     4.342767 -0.00016636147 
  175800    1.5526053 -0.00027364042    2.1670136    4.3403875 -0.0028850013 
  176000    1.2670132 -0.00035704993    2.5702697    4.3437311 -0.00025440463 
  176200    1.6026517 -0.00028128907    2.0999311    4.3433622 -0.001178897 
  176400    1.5811515 -0.00027797677    2.1294073    4.3427413 -0.0034910218 
  176600    1.5890142 -0.00036207047    2.1165725    4.3408303 0.0028126518 
  176800    1.6209582 -0.00024685789    2.0737579    4.3428525 -0.0044392346 
  177000    1.5628248 -0.00038972756    2.1567446    4.3443096 0.0037372874 
  177200    1.5562289 -0.00026509807    2.1674362    4.3458916 -0.0014252318 
  177400    1.6647093 -0.00036149679    2.0123754    4.3426069 0.0046180864 
  177600    1.8098682 -0.00029220183    1.8129783    4.3465016  0.002429989 
  177800    1.5008626 -0.00029062835    2.2467151    4.3476322 -0.00038045328 
  178000    1.5481433 -0.00031287822    2.1797206    4.3468083 0.0005817986 
  178200    1.6167382 -0.00029464751    2.0837394    4.3468782 -0.0022310279 
  178400    1.2780388 -0.00031783324    2.5582985    4.3472349 -0.0032807468 
  178600    1.5679638 -0.00023249995    2.1520339    4.3469506 -0.0049094265 
  178800    1.6717185 -0.00046150451    2.0071184    4.3470629   0.01007518 
  179000    1.9206737 -0.00024309807    1.6552399    4.3439399 -0.0022584955 
  179200    1.5013688 -0.00034711948    2.2459607    4.3475299 0.00013544239 
  179400    2.0956547 -0.00024502048    1.4118929    4.3455645 0.00078340886 
  179600    1.6184168 -0.00044230771    2.0842211    4.3495623 0.0053017596 
  179800    1.7211823 -0.00028104154    1.9398707    4.3492448 -0.00044143891 
  180000    1.5740579 -0.00025644913    2.1452376    4.3486622 -0.0033927964 
  180200    1.6174994 -0.00033498793    2.0846537    4.3488178  0.001390396 
  180400    1.6727461 -0.00032320458    2.0131012    4.3546226 0.0029962187 
  180600    1.7622639 -0.00042699508    1.8815347    4.3482772 0.0026882001 
  180800     1.434053 -0.0002245545    2.3429025    4.3503521 -0.0075058725 
  181000    1.6836989 -0.00039330715    1.9915489    4.3483341 0.0045969301 
  181200    1.4412887 -0.00030765833    2.3343517    4.3518483 0.00037333632 
  181400    1.2733063 -0.00030373739    2.5714673    4.3537923 -0.0011912297 
  181600    1.6819599 -0.00030310571    1.9978442    4.3522849 0.00070783715 
  181800    1.9568112 -0.00029149355    1.6112398     4.350484 0.0031374644 
  182000    1.8820987 -0.00039636121     1.711778    4.3463198 0.0028567652 
  182200    1.6447715 -0.00023758946     2.049323    4.3517655 -0.0029980251 
  182400    1.4381515 -0.0003767768    2.3418749    4.3549102 0.00058989119 
  182600    2.0305091 -0.00029788966    1.5121645    4.3545794 0.0023987104 
  182800    1.4924173 -0.00037685833    2.2657738    4.3547811 -0.000110105 
  183000    1.7303585 -0.00024155301    1.9292887     4.351549 -0.0038306371 
  183200    1.5929962 -0.0003549388    2.1208158    4.3506556 0.00092877638 
  183400    1.7179396 -0.00035353051    1.9475509    4.3523128 0.0036202912 
  183600     1.432191 -0.00019331145    2.3506206    4.3554947 -0.0050102399 
  183800    1.7495213 -0.00041507424    1.9045244    4.3534391 0.0064305848 
  184000    1.5140272 -0.00024355633    2.2378521    4.3572467 -0.0026260833 
  184200    1.3243451 -0.00039909924     2.501983    4.3556671 0.00096422604 
  184400    1.6691099 -0.00022085973    2.0200965    4.3566294 -0.0012408231 
  184600    1.7663397 -0.00036569353    1.8825305    4.3550404 0.0040457917 
  184800    1.2570046 -0.00028182029    2.6003465    4.3598712 -0.0013094451 
  185000    1.8747045 -0.00025855593    1.7308999    4.3552277 -0.0037628243 
  185200    1.5766745 -0.00038720143    2.1510323    4.3579894    0.0054678 
  185400    1.8002673 -0.00021926646    1.8374771    4.3576321 -0.0029975106 
  185600    1.3370634 -0.00037617026    2.4869983    4.3585109  0.006452443 
  185800    1.6365091 -0.00025925811    2.0691621    4.3600156 -0.00059693303 
  186000    1.6291491 -0.0004154745    2.0752704    4.3556637 0.0043586552 
  186200    2.0784241 -0.00022203056    1.4480292    4.3576009 -0.0027509843 
  186400    1.6894891 -0.00034990909    1.9931948    4.3581297 0.00079136269 
  186600     1.929902 -0.00025424567    1.6562367    4.3578452 -0.0015806254 
  186800    1.2086439 -0.00037131428    2.6701275    4.3618576 -0.0014149961 
  187000    1.9246455 -0.00032301727    1.6627439    4.3569246 -0.00040159073 
  187200    1.1896258 -0.00026168566    2.6978438    4.3630582 -0.0062626283 
  187400      1.82908 -0.00031799593    1.7988342    4.3592282 -0.0021902179 
  187600    1.1238063 -0.00028330146    2.7907787    4.3638242 -0.0009899832 
  187800    1.6077928 -0.0003132025    2.1108459    4.3614427 -0.0042907627 
  188000    1.8114537 -0.0002389671     1.825633    4.3614292 -0.00040916475 
  188200    1.5615637 -0.00038198264    2.1764865    4.3622936 0.0030348496 
  188400    1.3855863 -0.00022170611    2.4242536    4.3638527 -0.003501517 
  188600    1.3435943 -0.00031967834    2.4836817     4.364394 -0.00098169158 
[...]
  454800    2.0559689 -0.00039651344    2.2512072    5.1291672 0.0062975325 
  455000    2.4133205 -0.00032007013    1.7492606    5.1275892 0.0040123653 
  455200    1.7010024 -0.00036987719    2.7485924    5.1296259 -0.0012666008 
  455400    2.2764087 -0.00025112106    1.9404767    5.1271978 -0.00033376586 
  455600    1.9648427 -0.00040808684    2.3778506    5.1282222  0.003856406 
  455800     1.810535 -0.00026682072    2.5987547    5.1332369 -0.0059693416 
  456000     1.867712 -0.00034363747    2.5204438     5.134897 -0.0017465437 
  456200    1.7786993 -0.00037895639     2.644978    5.1347781 -0.00040603524 
  456400    1.8384184 -0.00024607855    2.5618601    5.1353998 -0.0045115112 
  456600    1.4092737 -0.00034929285    3.1626033    5.1352372 -0.00047086976 
  456800    1.6101479 -0.00032584421    2.8825675    5.1364488 0.00034282255 
  457000    1.9151812 -0.00029188919    2.4546972     5.135659 -0.00031890996 
  457200    2.2455821 -0.00026787971     1.991338    5.1348851 0.0019249493 
  457400    1.9770249 -0.00028540397     2.370454    5.1380035 0.0022623596 
  457600    2.1618925 -0.00035259602    2.1130468    5.1393436 0.0044909783 
  457800    1.5278131 -0.00028469026    3.0030755    5.1417291 -0.003626642 
  458000    1.8156998 -0.00026465875     2.599751     5.141466 -0.00096308098 
  458200    2.2651227 -0.0003715187    1.9686624    5.1394626 0.0043521314 
  458400    1.7350665 -0.00023978059    2.7138662    5.1427196 -0.0054315677 
  458600    1.9594195 -0.00047457546    2.3980819    5.1407946 0.0031001053 
  458800    2.0895445 -0.00043074264    2.2189043    5.1438358 0.0053166656 
  459000    1.7345186 -0.00026362986    2.7150298    5.1430922 -0.0025209447 
  459200    1.8883024 -0.00025238992    2.5025098    5.1458807 0.0021801394 
  459400    1.9826013 -0.00035142747    2.3697798    5.1450701 0.0037239959 
  459600    1.9272361 -0.00037908634    2.4480067    5.1457582 -0.0040245739 
  459800    1.8278287 -0.00028345114     2.587148    5.1458247 -0.0054111555 
  460000    1.6540307 -0.00048355476    2.8352103    5.1503697  0.001693353 
  460200    2.1835386 -0.00023625115    2.0916754    5.1483931 -0.00084917889 
  460400    1.9061424 -0.00043052668    2.4813165    5.1494854  0.001524869 
  460600    1.7904727 -0.00035995847    2.6436055    5.1499073 -0.002329077 
  460800    1.4757898 -0.00051472048    3.0865941    5.1521851 -0.0045533503 
  461000    2.3017777 -0.00024322512    1.9283415     5.150587 -0.0051366827 
  461200    1.9504909 -0.00046673932    2.4213611    5.1515816  0.004729362 
  461400    1.6447961 -0.00028682589    2.8510657    5.1534934 -0.0057683441 
  461600    2.0788351 -0.00032140775     2.243871    5.1539188 -0.0025334264 
  461800    2.0786454 -0.0003871541    2.2423072    5.1520235 0.0042413019 
  462000    1.8913889 -0.000305994    2.5069571    5.1545956 -0.0017255666 
  462200    1.4829845 -0.00027816343    3.0813382    5.1572383 -0.0051048952 
  462400    2.0143671 -0.00036510177    2.3367186    5.1564675 -0.0017723093 
  462600     2.153912 -0.00042279519      2.13975    5.1548041 0.0070704599 
  462800    1.7548062 -0.00021575861    2.7024548    5.1589677 -0.0035963931 
  463000    2.0059881 -0.00027468004    2.3479161    5.1560248 0.0012826083 
  463200    1.7197166 -0.00038867975     2.752678    5.1598925 0.0023408969 
  463400    2.1471614 -0.00033267927    2.1527511    5.1584444 0.0022561971 
  463600     1.860276 -0.00033524954    2.5590031    5.1630543 -3.6686759e-05 
  463800    2.3127827 -0.000252341    1.9231592    5.1608026 0.00045621175 
  464000    1.7427718 -0.0002968516    2.7229509    5.1625345 -0.0037328328 
  464200    1.5871257 -0.00034311027    2.9423521     5.163985 -0.0039293693 
  464400     1.834801 -0.00032947564    2.5941237    5.1625156 -0.0014826072 
  464600    1.9780331 -0.00038637281    2.3968077    5.1656676 0.0040559684 
  464800    1.9283993 -0.00017716329    2.4646204    5.1642022 -0.0041201714 
  465000    1.9663222 -0.00041807535    2.4103374    5.1627704 0.0011830689 
  465200    2.0613494 -0.00039248952    2.2802164     5.165713 0.0039902006 
  465400    1.6330046 -0.00035944373    2.8831236    5.1689706 -0.0065474392 
  465600    2.0850682 -0.00030910977    2.2504254    5.1692118 0.0044273609 
  465800    2.5215152 -0.00028536107    1.6391365    5.1689725 0.00060010934 
  466000    2.2372884 -0.00037960389    2.0328442    5.1646684 -0.0036636919 
  466200      2.01768 -0.00030141555    2.3451772    5.1696278 -0.00048283922 
  466400    1.9922534 -0.00046866757     2.384376    5.1730621 0.0030940507 
  466600    1.4156052 -0.00022623123    3.1925725    5.1741936 -0.0040737878 
  466800    2.3362275 -0.00031487932    1.9008137    5.1712173 -0.0021029786 
  467000    1.8763223 -0.00031711954     2.545492    5.1720261 0.0022282577 
  467200    1.8905975 -0.00048861526    2.5266674    5.1730152 0.0043847388 
  467400    2.1382799 -0.00024446542    2.1813099    5.1746573 9.2978142e-06 
  467600    1.8578698 -0.00027233312    2.5756094    5.1763547 0.0027152233 
  467800     2.074079 -0.00027197119     2.271337    5.1747757 -0.00033857306 
  468000    1.8857525 -0.00041318268    2.5369516    5.1765919 0.0014732737 
  468200    1.7219227 -0.00032941191    2.7667483    5.1771108 -0.0040425098 
  468400    2.1401037 -0.00031551572    2.1843955    5.1802251 0.0050658151 
  468600    1.6153515 -0.00021974335     2.921771    5.1830434 -0.0092216576 
  468800    1.8162099 -0.00037867483    2.6375247    5.1798398 0.0024521612 
  469000     1.812832 -0.00045476809    2.6425404    5.1800504 -0.0002872417 
  469200    1.6731514 -0.00024615202    2.8379841    5.1801499 -0.0036396809 
  469400    2.0404237 -0.00033595065    2.3287248     5.184982 0.00069762957 
  469600    1.8206854 -0.00021219642    2.6346312    5.1833785 -0.0055346453 
  469800    1.9172418 -0.00039759863    2.4978113    5.1815522 0.00069553049 
  470000    2.0898008 -0.00039949213    2.2588754    5.1841971 0.0043449815 
  470200    1.9287531 -0.00030826083    2.4850129     5.184959 0.00027312802 
  470400    2.0333748 -0.0002384384    2.3402938      5.18678 -0.0053859787 
  470600    2.2438933 -0.00033164477    2.0440316    5.1851506 0.0043154359 
  470800    1.7560717 -0.00033912114    2.7273594    5.1855206 -0.004234433 
  471000    2.3300015 -0.00041051033     1.923724    5.1853156 0.0064254667 
  471200    1.6200171 -0.00029243586    2.9206366    5.1883682 -0.0050289212 
  471400    2.0351359 -0.00025543429    2.3398524    5.1887873 0.00054424276 
  471600    1.6289348 -0.00034462377    2.9084854    5.1886495 -0.0038839594 
  471800    1.7650197 -0.00032934252    2.7189552    5.1896534 0.0010256387 
  472000     1.823766 -0.0004119206    2.6406454    5.1935059 0.0031347307 
  472200    2.1413015 -0.00028135156    2.1929357    5.1904766 -0.00041628193 
  472400    1.6651905 -0.00026746966    2.8594243    5.1904235 -0.0049815779 
  472600    1.9365162 -0.00035211201    2.4830141    5.1937847 0.00094837594 
  472800    1.9203065 -0.00040358739    2.5057864    5.1938119 0.0010342815 
  473000    1.6492786 -0.00040900664    2.8876342    5.1962153 -0.00010935664 
  473200    1.8699871 -0.00029559341    2.5760897     5.193776 -0.0054853616 
  473400    2.4209448 -0.00030977658    1.8061844    5.1951973 -0.001746795 
  473600    2.0538702 -0.00035613792    2.3229582    5.1980203 0.00035388814 
  473800    1.9218073 -0.00038168439    2.5072788    5.1974273 -0.0004440074 
  474000    1.4080248 -0.00028908495    3.2307049    5.2016506 -0.0023644353 
  474200    2.3078075 -0.00036625691     1.964269    5.1948332 0.0056499621 
  474400    1.7370368 -0.00020332469    2.7695124    5.2011606  -0.00857083 
  474600    1.7056403 -0.00037324729    2.8135523    5.2010754 -0.0011910504 
  474800    1.4784075 -0.00034446104    3.1356681    5.2050942 -0.00095663284 
  475000    1.8028784 -0.0003196414    2.6817438    5.2054539 0.00017962414 
  475200    1.9029599 -0.00028210488    2.5401541    5.2040158 0.00054872322 
  475400    1.8926731 -0.00034440863    2.5554154    5.2048134 0.0031169173 
  475600    2.2719702 -0.00026873541    2.0220947    5.2025842 -0.0014031594 
  475800    1.7136356 -0.00040700357    2.8074508    5.2061337 0.00061560367 
  476000    1.8225015 -0.0003210839    2.6533186    5.2044996 -0.0026308568 
  476200     1.827459 -0.00033094249     2.650164    5.2082757 0.00059304165 
  476400    1.8304955 -0.00028885043    2.6484044    5.2108092 -0.0025838188 
  476600    2.0770945 -0.00031613028    2.3007547    5.2083709 0.0010772095 
  476800    1.6165323 -0.0004337795    2.9471211    5.2098326 0.0027549456 
  477000    2.0080434 -0.00025133099    2.3981238    5.2091333 -0.0062407099 
  477200    2.1802941 -0.00034508031    2.1580103    5.2100771 0.0035976203 
  477400    2.3477537 -0.00033990552    1.9224713    5.2089866 0.0034046761 
  477600    1.7070822 -0.00039206261    2.8230839     5.212607 -0.00071268516 
  477800     1.802907 -0.00029181485    2.6899101     5.213688 -0.0031898862 
  478000    1.9028405 -0.00037441794     2.542687    5.2062893 0.00088260766 
  478200    1.8862971 -0.00023857941    2.5752199    5.2157973 -0.0054414223 
  478400    1.9519618 -0.00038010358    2.4818211    5.2141876 -0.00041527955 
  478600    1.6201482 -0.00035096131    2.9492705    5.2171269 0.0010076634 
  478800    1.9577891 -0.00036620192    2.4787442    5.2192828 0.0017829851 
  479000    2.2220088 -0.00027962758      2.10863    5.2191627 0.00021980013 
  479200     1.655929 -0.00028776018    2.9029621    5.2209749 -0.00013575956 
  479400     2.100647 -0.00032913175    2.2770175    5.2175942 0.00033313621 
  479600     2.044062 -0.00037876947    2.3562932    5.2176012 0.0021014726 
  479800    2.0545842 -0.00025360353    2.3424139    5.2185782 -0.001481448 
  480000    2.4299526 -0.00035964428    1.8167787    5.2183527 0.0046219558 
  480200    1.3057154 -0.00021815239    3.3959621    5.2237455 -0.0099993891 
  480400    1.5606737 -0.00047523508     3.039107     5.223575 0.00097399817 
  480600    1.9794772 -0.0002869894    2.4539262    5.2249072 0.0015368207 
  480800    2.2452422 -0.00028061766    2.0795635    5.2226219 0.0020748391 
  481000    1.5766874 -0.00028159638    3.0200791    5.2271598 -0.00071461918 
  481200    1.7518534 -0.0003677084     2.773972     5.226199 0.0011586602 
  481400    2.0251491 -0.00029179015    2.3918453    5.2267623 -0.0016921421 
  481600      2.45624 -0.00030222119    1.7859006    5.2243344 0.0033902971 
  481800    2.0214633 -0.00026812686    2.4012558    5.2310363 0.0026114893 
  482000     1.770632 -0.00030597397    2.7515956    5.2301745 9.7962484e-05 
  482200    1.5177459 -0.00034179296    3.1069123    5.2314149 -0.00072928136 
  482400    2.1097509 -0.00030990222    2.2781168    5.2314581 0.0026524883 
  482600    1.9285869 -0.00032811054    2.5314123    5.2311058 0.0016139922 
  482800    2.0002934 -0.00022819325    2.4285304     5.228713 -0.0052596534 
  483000     2.159418 -0.00034555645    2.2077885    5.2306282 -9.6348734e-05 
  483200    2.1500147 -0.00029226481    2.2191076    5.2288359 -0.0010100441 
  483400     2.062508 -0.00037191863    2.3439566    5.2310958 0.0046286022 
  483600    2.3097206 -0.00027616024    1.9996637    5.2329963 7.5248133e-05 
  483800    2.0223368 -0.00029694092    2.4007128    5.2316873 -0.00050396529 
  484000    1.5999812 -0.00027368236    2.9998617    5.2395616 -0.0026633099 
  484200    2.2050466 -0.0004017928    2.1469362    5.2335996 0.0041669533 
  484400    1.8734238 -0.00027763442    2.6137201    5.2362358 -0.0030076473 
  484600    1.8859966 -0.00030570569    2.6009441    5.2410336 0.0016073267 
  484800    2.0231356 -0.00025522047    2.4068427    5.2389774 -7.7305284e-05 
  485000    2.0194004 -0.0003523335    2.4113542    5.2381624 0.0005649494 
  485200    1.7496636 -0.00030777237    2.7920659    5.2412871 -0.0019069866 
  485400    1.8122408 -0.00030680746    2.7052657     5.242096 0.0033001354 
  485600    2.2484678 -0.00030037669    2.0935209    5.2410755  0.005669255 
  485800    1.8953747 -0.00025125186    2.5915333    5.2448066 -0.0025301368 
  486000    1.4557866 -0.00031134113    3.2069111    5.2447011 -0.0033409342 
  486200    1.8340864 -0.000320918    2.6769526    5.2443527 0.0017552507 
  486400    1.9867248 -0.00034577894    2.4640444    5.2451133 0.0016854813 
  486600    1.9953993 -0.00022538378     2.452433    5.2457667 -0.0060368249 
  486800    1.7276471 -0.00034327859    2.8331723     5.251535 -0.00043929718 
  487000    1.9383939 -0.00028639124    2.5331103    5.2465753 -0.00035102463 
  487200    1.7341477 -0.00039335775    2.8212463    5.2486597 0.0021990315 
  487400    1.5934369 -0.00032465828    3.0168752    5.2473622 0.0001511969 
  487600    1.3521842 -0.0002452869    3.3590517    5.2518643 -0.0073372646 
  487800    1.7880887 -0.00027465775    2.7462723    5.2493219 -0.0038416554 
  488000     1.647699 -0.00037262189    2.9433917    5.2497977 0.0023438713 
  488200    1.8544613 -0.00034710942    2.6571807    5.2530794 0.00033980563 
  488400    1.8855374 -0.0002894021    2.6161383    5.2556012 -0.0019365759 
  488600    2.4892621 -0.00028957716     1.765253    5.2499303 0.00090138213 
  488800    1.5497161 -0.00031135319    3.0866615    5.2559527 -0.0046089073 
  489000    1.5418919 -0.00033521686     3.094975    5.2532884 -0.0027114949 
  489200     1.876555 -0.00038344326    2.6309679    5.2577615 0.0019610819 
  489400    2.0952766 -0.00025731519    2.3209595    5.2540894 0.00058359966 
  489600    1.8962818 -0.00026176774    2.6035206    5.2580533 -0.0044721749 
  489800    1.8294456 -0.00036131734    2.6962244     5.257087 0.00094561061 
  490000    1.9178738 -0.00037713182    2.5717676    5.2564138 -0.0029373801 
  490200    1.9139756 -0.00034819158    2.5782773    5.2574949 -0.0011950184 
  490400    2.7672699 -0.00029088651    1.3828971    5.2567841 0.0013263523 
  490600    2.1426373 -0.00027499232    2.2630771    5.2624943  0.002488494 
  490800    1.8714835 -0.00032848313    2.6404403    5.2601887 -2.2943862e-05 
  491000    1.4866046 -0.00032565613    3.1823745    5.2632953 -0.0019680841 
  491200    1.8894209 -0.00037320199    2.6196937    5.2645097 0.00080840165 
  491400    2.6567249 -0.00026776354    1.5393088    5.2584559 0.0012324393 
  491600    1.9248685 -0.00031834351    2.5680432    5.2625408 -0.0011748389 
  491800    2.1322378 -0.00030291276    2.2782575    5.2630875 -0.0012409438 
  492000    1.5597198 -0.00036307631    3.0826727    5.2659174 0.00085350704 
  492200    1.3898447 -0.00030639797    3.3210199    5.2664961 -0.0053418951 
  492400    1.7648378 -0.00027588837    2.7959221    5.2664191 -0.00052696828 
  492600    2.0577846 -0.00028540939    2.3880005    5.2686136 -0.00082094162 
  492800    1.8812775 -0.00033200756    2.6354942    5.2689507 0.00089343365 
  493000    1.7081307 -0.00031218368     2.875411    5.2664817 -0.0059318493 
  493200    1.8363711 -0.00038235255    2.6979244    5.2684616 -0.0004687039 
  493400     1.702278 -0.00030510293    2.8885777    5.2714618 0.0011191159 
  493600    2.0636062 -0.00025526256    2.3808714    5.2696649 -0.0053245525 
  493800    1.9709445 -0.00034825815    2.5089318    5.2679058 0.0010250708 
  494000     1.910426 -0.0003582602     2.597298    5.2715362 -0.0038358286 
  494200    1.8608827 -0.00038860097    2.6684524    5.2732995 0.0018571675 
  494400    1.5937623 -0.00026066023    3.0446134      5.27562 -0.0080483445 
  494600    1.8436051 -0.0003272345    2.6953754    5.2760952 -0.00065778568 
  494800    2.2069167 -0.00028376257    2.1824453     5.271845 -0.0014499557 
  495000    1.6997795 -0.00042902123    2.8974833    5.2767456 -0.0016240648 
  495200    2.0061278 -0.00036291678    2.4657215    5.2739375 0.0046190047 
  495400    2.6159856 -0.00025124775     1.614379    5.2765075 -0.0010366327 
  495600    1.9305157 -0.00027752425    2.5764814    5.2789259 -0.0021324416 
  495800    2.0256087 -0.00046062003     2.442864    5.2782555 0.0029212636 
  496000     1.945348 -0.00033913267    2.5581992    5.2813474 -0.0021539443 
  496200    1.8677931 -0.00028028023    2.6670638    5.2816939 -0.0015399145 
  496400    2.0336199 -0.00033538011    2.4343571    5.2810896 7.3942112e-05 
  496600    1.8163996 -0.00031464064    2.7401918    5.2828366 0.0015211004 
  496800    1.3101869 -0.00031007737    3.4501784      5.28413 -0.0049336337 
  497000    2.3992312 -0.00033488227    1.9238937    5.2824824 0.0037593029 
  497200     2.019242 -0.00033431176     2.461691    5.2882955 0.0048351298 
  497400    1.9409967 -0.00025677545    2.5685097    5.2856482 -0.0033349859 
  497600    1.9890791 -0.00034280036     2.500939    5.2853069 -0.0015772656 
  497800    1.8747786 -0.00031664213    2.6609253    5.2852986 -0.003515665 
  498000    1.8163371 -0.00030953513    2.7458427    5.2884052 0.0017162672 
  498200    1.8573924 -0.00021770126    2.6878858    5.2880175 -0.0064425252 
  498400    2.5169952 -0.00041318387    1.7622559     5.285636  0.010545514 
  498600    2.4059786 -0.00030565142    1.9203033    5.2883677 0.0013379186 
  498800    2.2322626 -0.00033353196    2.1624266    5.2872607 0.00061347145 
  499000    1.9113096 -0.00029472459    2.6153704    5.2909091 -0.0046170881 
  499200    2.1031884 -0.00028393042    2.3478586    5.2920384 -0.0014829192 
  499400    1.9625584 -0.00035559239     2.543619    5.2908451 0.00041154465 
  499600    2.1547827 -0.00031999714    2.2742675    5.2906432 0.00091095273 
  499800    1.7728882 -0.00029293827    2.8112806    5.2930312 0.00044898039 
  500000    1.8327423 -0.00029219855    2.7319728    5.2975198 -0.0028769388 
  500200    2.1234465 -0.00025559313    2.3208295     5.293399 -0.00032440313 
  500277    2.4075979 -0.00030290292    1.9207537    5.2910879 -0.00021907134 
Loop time of 6.53403 on 1 procs for 500000 steps with 15 atoms

Performance: 6611536.442 tau/day, 76522.413 timesteps/s
60.5% CPU use with 1 MPI tasks x 1 OpenMP threads

MPI task timing breakdown:
Section |  min time  |  avg time  |  max time  |%varavg| %total
---------------------------------------------------------------
Pair    | 0.5898     | 0.5898     | 0.5898     |   0.0 |  9.03
Bond    | 1.2732     | 1.2732     | 1.2732     |   0.0 | 19.49
Neigh   | 0.32254    | 0.32254    | 0.32254    |   0.0 |  4.94
Comm    | 0.22801    | 0.22801    | 0.22801    |   0.0 |  3.49
Output  | 2.7055     | 2.7055     | 2.7055     |   0.0 | 41.41
Modify  | 1.0231     | 1.0231     | 1.0231     |   0.0 | 15.66
Other   |            | 0.3919     |            |       |  6.00

Nlocal:    15 ave 15 max 15 min
Histogram: 1 0 0 0 0 0 0 0 0 0
Nghost:    0 ave 0 max 0 min
Histogram: 1 0 0 0 0 0 0 0 0 0
Neighs:    5 ave 5 max 5 min
Histogram: 1 0 0 0 0 0 0 0 0 0

Total # of neighbors = 5
Ave neighs/atom = 0.333333
Ave special neighs/atom = 5.2
Neighbor list builds = 15906
Dangerous builds = 0


# ----------------- Run Section -----------------

# The lines above define the system you want to simulate.
# What you do next is up to you.
# Typically a user would minimize and equilibrate
# the system using commands similar to the following:
#  ----   examples   ----
#
#  -- minimize --
# minimize 1.0e-5 1.0e-7 1000 10000
# (Note: Some fixes, for example "shake", interfere with the minimize command,
#        You can use the "unfix" command to disable them before minimization.)
#  -- declare time step for normal MD --
# timestep 1.0
#  -- run at constant pressure (Nose-Hoover)--
# fix   fxnpt all npt temp 300.0 300.0 100.0 iso 1.0 1.0 1000.0 drag 1.0
#  -- ALTERNATELY, run at constant volume (Nose-Hoover) --
# fix   fxnvt all nvt temp 300.0 300.0 500.0 tchain 1
#  -- ALTERNATELY, run at constant volume using Langevin dynamics. --
#  -- (This is good for sparse CG polymers in implicit solvent.)   --
# fix fxLAN all langevin 300.0 300.0 5000 48279
# fix fxNVE all nve  #(<--needed by fix langevin)
#  -- Now, finally run the simulation --
# run   50000
#  ---- (end of examples) ----

Total wall time: 0:00:06
