ITEM: TIMESTEP
0
ITEM: NUMBER OF ATOMS
15
ITEM: BOX BOUNDS pp pp pp
-1.0000000000000000e+01 1.0000000000000000e+01
-1.0000000000000000e+01 1.0000000000000000e+01
-1.0000000000000000e+01 1.0000000000000000e+01
ITEM: ATOMS id type xs ys zs
3 5 0.475 0.55 0.5
1 5 0.525 0.55 0.5
2 3 0.5 0.55 0.5
6 5 0.475 0.6125 0.5
4 5 0.525 0.6125 0.5
5 4 0.5 0.6125 0.5
9 5 0.475 0.67 0.5
7 5 0.525 0.67 0.5
8 3 0.5 0.67 0.5
12 5 0.475 0.7275 0.5
15 5 0.475 0.785 0.5
10 5 0.525 0.7275 0.5
11 4 0.5 0.7275 0.5
13 5 0.525 0.785 0.5
14 4 0.5 0.785 0.5
ITEM: TIMESTEP
100
ITEM: NUMBER OF ATOMS
15
ITEM: BOX BOUNDS pp pp pp
-1.0000000000000000e+01 1.0000000000000000e+01
-1.0000000000000000e+01 1.0000000000000000e+01
-1.0000000000000000e+01 1.0000000000000000e+01
ITEM: ATOMS id type xs ys zs
3 5 0.492267 0.554265 0.5
1 5 0.495123 0.594159 0.5
2 3 0.493706 0.574211 0.5
6 5 0.495635 0.601643 0.5
4 5 0.498193 0.641563 0.5
5 4 0.496941 0.621603 0.5
9 5 0.498648 0.649047 0.5
7 5 0.501059 0.688974 0.5
8 3 0.499839 0.66901 0.5
12 5 0.501543 0.69646 0.5
15 5 0.504959 0.743831 0.5
10 5 0.50438 0.736355 0.5
11 4 0.502915 0.716411 0.5
13 5 0.50822 0.7837 0.5
14 4 0.506574 0.763766 0.5
ITEM: TIMESTEP
200
ITEM: NUMBER OF ATOMS
15
ITEM: BOX BOUNDS pp pp pp
-1.0000000000000000e+01 1.0000000000000000e+01
-1.0000000000000000e+01 1.0000000000000000e+01
-1.0000000000000000e+01 1.0000000000000000e+01
ITEM: ATOMS id type xs ys zs
3 5 0.492446 0.55425 0.5
1 5 0.494983 0.594169 0.5
2 3 0.493711 0.57421 0.5
6 5 0.495464 0.601653 0.5
4 5 0.498072 0.641568 0.5
5 4 0.496761 0.621611 0.5
9 5 0.498569 0.649051 0.5
7 5 0.501263 0.68896 0.5
8 3 0.499909 0.669006 0.5
12 5 0.501775 0.696442 0.5
15 5 0.505057 0.743828 0.5
10 5 0.504536 0.736347 0.5
11 4 0.503151 0.716395 0.5
13 5 0.507851 0.783731 0.5
14 4 0.506453 0.76378 0.5
ITEM: TIMESTEP
277
ITEM: NUMBER OF ATOMS
15
ITEM: BOX BOUNDS pp pp pp
-1.0000000000000000e+01 1.0000000000000000e+01
-1.0000000000000000e+01 1.0000000000000000e+01
-1.0000000000000000e+01 1.0000000000000000e+01
ITEM: ATOMS id type xs ys zs
3 5 0.492402 0.554252 0.5
1 5 0.494985 0.594169 0.5
2 3 0.493691 0.574211 0.5
6 5 0.495472 0.601653 0.5
4 5 0.498095 0.641566 0.5
5 4 0.496779 0.62161 0.5
9 5 0.498592 0.64905 0.5
7 5 0.501275 0.688959 0.5
8 3 0.499928 0.669005 0.5
12 5 0.501784 0.696442 0.5
15 5 0.505047 0.743829 0.5
10 5 0.504528 0.736347 0.5
11 4 0.503151 0.716395 0.5
13 5 0.507833 0.783732 0.5
14 4 0.506438 0.763781 0.5
ITEM: TIMESTEP
300
ITEM: NUMBER OF ATOMS
15
ITEM: BOX BOUNDS pp pp pp
-1.0000000000000000e+01 1.0000000000000000e+01
-1.0000000000000000e+01 1.0000000000000000e+01
-1.0000000000000000e+01 1.0000000000000000e+01
ITEM: ATOMS id type xs ys zs
3 5 0.495541 0.554839 0.494643
1 5 0.49215 0.592143 0.501192
2 3 0.490889 0.573681 0.502874
6 5 0.493071 0.601086 0.49992
4 5 0.500028 0.638912 0.50082
5 4 0.49476 0.619296 0.500101
9 5 0.49871 0.650494 0.502613
8 3 0.503396 0.669487 0.503569
7 5 0.503374 0.689233 0.498086
12 5 0.502212 0.698327 0.498259
15 5 0.503492 0.743927 0.498972
10 5 0.503096 0.737405 0.50057
11 4 0.502525 0.718908 0.500019
13 5 0.511361 0.783835 0.49631
14 4 0.506907 0.763528 0.497744
ITEM: TIMESTEP
400
ITEM: NUMBER OF ATOMS
15
ITEM: BOX BOUNDS pp pp pp
-1.0000000000000000e+01 1.0000000000000000e+01
-1.0000000000000000e+01 1.0000000000000000e+01
-1.0000000000000000e+01 1.0000000000000000e+01
ITEM: ATOMS id type xs ys zs
3 5 0.489486 0.554247 0.494095
1 5 0.488926 0.595048 0.503284
2 3 0.487491 0.573084 0.498812
6 5 0.489524 0.599624 0.504584
4 5 0.498406 0.640454 0.509152
5 4 0.491812 0.620535 0.508758
9 5 0.500176 0.648396 0.507882
8 3 0.505652 0.668225 0.50446
7 5 0.505695 0.688157 0.50323
12 5 0.504719 0.695878 0.503506
15 5 0.505204 0.745637 0.492493
10 5 0.504318 0.737889 0.496236
11 4 0.503455 0.718585 0.501397
13 5 0.517489 0.784059 0.485301
14 4 0.509612 0.764878 0.486692
ITEM: TIMESTEP
500
ITEM: NUMBER OF ATOMS
15
ITEM: BOX BOUNDS pp pp pp
-1.0000000000000000e+01 1.0000000000000000e+01
-1.0000000000000000e+01 1.0000000000000000e+01
-1.0000000000000000e+01 1.0000000000000000e+01
ITEM: ATOMS id type xs ys zs
3 5 0.474225 0.562121 0.4958
1 5 0.493164 0.593896 0.506049
2 3 0.483277 0.578167 0.498838
6 5 0.497212 0.605435 0.507259
4 5 0.494522 0.643121 0.513495
5 4 0.497753 0.624397 0.509842
9 5 0.495348 0.651018 0.512729
8 3 0.495379 0.672321 0.510686
7 5 0.499603 0.691087 0.508407
12 5 0.502672 0.697318 0.505254
15 5 0.517627 0.739009 0.48934
10 5 0.517647 0.731565 0.491313
11 4 0.511334 0.712306 0.497285
13 5 0.508538 0.775568 0.474291
14 4 0.511972 0.757741 0.48138
ITEM: TIMESTEP
600
ITEM: NUMBER OF ATOMS
15
ITEM: BOX BOUNDS pp pp pp
-1.0000000000000000e+01 1.0000000000000000e+01
-1.0000000000000000e+01 1.0000000000000000e+01
-1.0000000000000000e+01 1.0000000000000000e+01
ITEM: ATOMS id type xs ys zs
3 5 0.473624 0.566284 0.499704
1 5 0.48737 0.601046 0.506978
2 3 0.480849 0.583279 0.500936
6 5 0.489118 0.608192 0.51031
4 5 0.493188 0.645187 0.515127
5 4 0.492834 0.626517 0.511537
9 5 0.496589 0.652748 0.514322
8 3 0.501831 0.671596 0.51496
7 5 0.502929 0.690765 0.512226
12 5 0.504927 0.69624 0.507871
15 5 0.517568 0.73458 0.485112
10 5 0.516199 0.726922 0.488056
11 4 0.510299 0.711538 0.497037
13 5 0.515047 0.76788 0.461824
14 4 0.515902 0.75215 0.474764
ITEM: TIMESTEP
700
ITEM: NUMBER OF ATOMS
15
ITEM: BOX BOUNDS pp pp pp
-1.0000000000000000e+01 1.0000000000000000e+01
-1.0000000000000000e+01 1.0000000000000000e+01
-1.0000000000000000e+01 1.0000000000000000e+01
ITEM: ATOMS id type xs ys zs
3 5 0.476642 0.561476 0.501104
1 5 0.476764 0.602488 0.509323
2 3 0.474775 0.581675 0.502974
6 5 0.477862 0.606415 0.511119
4 5 0.493886 0.644123 0.519874
5 4 0.485843 0.623979 0.518064
9 5 0.499956 0.654636 0.519298
8 3 0.509016 0.671143 0.516957
7 5 0.511375 0.690799 0.511343
12 5 0.512418 0.698754 0.508945
15 5 0.512085 0.736403 0.478712
10 5 0.511119 0.73224 0.483724
11 4 0.511346 0.718965 0.498511
13 5 0.529335 0.760109 0.452587
14 4 0.518292 0.750516 0.465479
ITEM: TIMESTEP
800
ITEM: NUMBER OF ATOMS
15
ITEM: BOX BOUNDS pp pp pp
-1.0000000000000000e+01 1.0000000000000000e+01
-1.0000000000000000e+01 1.0000000000000000e+01
-1.0000000000000000e+01 1.0000000000000000e+01
ITEM: ATOMS id type xs ys zs
3 5 0.46691 0.567337 0.501296
1 5 0.478545 0.600412 0.515554
2 3 0.470867 0.58393 0.510877
6 5 0.48235 0.610165 0.516079
4 5 0.493761 0.647659 0.518841
5 4 0.488638 0.627048 0.518166
9 5 0.495389 0.654382 0.519812
8 3 0.502298 0.672621 0.517385
7 5 0.50515 0.690805 0.507903
12 5 0.508513 0.698434 0.504318
15 5 0.522375 0.733686 0.477468
10 5 0.520874 0.728433 0.484751
11 4 0.51486 0.714309 0.496293
13 5 0.525635 0.757225 0.445441
14 4 0.52358 0.747823 0.461548
ITEM: TIMESTEP
900
ITEM: NUMBER OF ATOMS
15
ITEM: BOX BOUNDS pp pp pp
-1.0000000000000000e+01 1.0000000000000000e+01
-1.0000000000000000e+01 1.0000000000000000e+01
-1.0000000000000000e+01 1.0000000000000000e+01
ITEM: ATOMS id type xs ys zs
3 5 0.453759 0.575194 0.513769
1 5 0.48499 0.603302 0.518347
2 3 0.468724 0.588022 0.516891
6 5 0.488866 0.609282 0.517102
4 5 0.489386 0.651485 0.518424
5 4 0.489594 0.63012 0.519484
9 5 0.489757 0.656527 0.518797
8 3 0.496026 0.675381 0.511809
7 5 0.50447 0.691923 0.505119
12 5 0.507471 0.697573 0.502248
15 5 0.529108 0.726356 0.473679
10 5 0.527611 0.720254 0.479901
11 4 0.517382 0.708874 0.492705
13 5 0.526737 0.757881 0.450701
14 4 0.527191 0.742715 0.460068
ITEM: TIMESTEP
1000
ITEM: NUMBER OF ATOMS
15
ITEM: BOX BOUNDS pp pp pp
-1.0000000000000000e+01 1.0000000000000000e+01
-1.0000000000000000e+01 1.0000000000000000e+01
-1.0000000000000000e+01 1.0000000000000000e+01
ITEM: ATOMS id type xs ys zs
3 5 0.460699 0.568305 0.526266
1 5 0.471285 0.606703 0.522736
2 3 0.463351 0.587691 0.524672
6 5 0.475201 0.614548 0.522655
4 5 0.491499 0.649622 0.519944
5 4 0.482987 0.632873 0.520682
9 5 0.496786 0.658618 0.516941
8 3 0.502924 0.671825 0.509511
7 5 0.507005 0.688805 0.502335
12 5 0.508527 0.694863 0.499247
15 5 0.525966 0.729047 0.471696
10 5 0.523157 0.723114 0.47512
11 4 0.514915 0.708303 0.485597
13 5 0.543651 0.758017 0.447741
14 4 0.533929 0.743487 0.457197
ITEM: TIMESTEP
1100
ITEM: NUMBER OF ATOMS
15
ITEM: BOX BOUNDS pp pp pp
-1.0000000000000000e+01 1.0000000000000000e+01
-1.0000000000000000e+01 1.0000000000000000e+01
-1.0000000000000000e+01 1.0000000000000000e+01
ITEM: ATOMS id type xs ys zs
12 5 0.513115 0.695523 0.494327
11 4 0.519408 0.711679 0.479129
15 5 0.526904 0.736093 0.465778
10 5 0.522943 0.729401 0.470561
13 5 0.556221 0.753834 0.445099
14 4 0.539058 0.747266 0.454721
3 5 0.458278 0.566653 0.535643
1 5 0.465447 0.606094 0.531267
2 3 0.45859 0.585877 0.534023
6 5 0.468846 0.613186 0.530295
5 4 0.477272 0.629381 0.524714
4 5 0.488342 0.647162 0.518502
9 5 0.492929 0.653489 0.513489
8 3 0.504025 0.671101 0.505996
7 5 0.510259 0.687956 0.497872
ITEM: TIMESTEP
1200
ITEM: NUMBER OF ATOMS
15
ITEM: BOX BOUNDS pp pp pp
-1.0000000000000000e+01 1.0000000000000000e+01
-1.0000000000000000e+01 1.0000000000000000e+01
-1.0000000000000000e+01 1.0000000000000000e+01
ITEM: ATOMS id type xs ys zs
12 5 0.507098 0.695363 0.48763
11 4 0.522415 0.707278 0.478758
15 5 0.53959 0.725017 0.46753
10 5 0.536424 0.72016 0.470472
13 5 0.545898 0.757034 0.445219
14 4 0.54476 0.742276 0.457805
3 5 0.449011 0.580021 0.548663
1 5 0.471332 0.605791 0.534311
2 3 0.458728 0.592168 0.541729
6 5 0.475363 0.614005 0.531594
5 4 0.479392 0.631647 0.524525
4 5 0.48471 0.648885 0.513039
9 5 0.486045 0.653101 0.508066
8 3 0.49564 0.672551 0.499293
7 5 0.50265 0.688783 0.489254
ITEM: TIMESTEP
1300
ITEM: NUMBER OF ATOMS
15
ITEM: BOX BOUNDS pp pp pp
-1.0000000000000000e+01 1.0000000000000000e+01
-1.0000000000000000e+01 1.0000000000000000e+01
-1.0000000000000000e+01 1.0000000000000000e+01
ITEM: ATOMS id type xs ys zs
12 5 0.510271 0.688462 0.485207
11 4 0.522164 0.699768 0.478076
15 5 0.536943 0.718277 0.465022
10 5 0.53344 0.711646 0.468047
13 5 0.552439 0.754504 0.453603
14 4 0.544366 0.73679 0.460803
3 5 0.451401 0.592609 0.563474
1 5 0.469689 0.613169 0.533656
2 3 0.460074 0.602862 0.549105
6 5 0.473072 0.621393 0.529214
5 4 0.478258 0.635127 0.518489
4 5 0.481973 0.648748 0.507872
9 5 0.485275 0.656618 0.50181
8 3 0.495298 0.671147 0.495722
7 5 0.505167 0.683187 0.487705
ITEM: TIMESTEP
1400
ITEM: NUMBER OF ATOMS
15
ITEM: BOX BOUNDS pp pp pp
-1.0000000000000000e+01 1.0000000000000000e+01
-1.0000000000000000e+01 1.0000000000000000e+01
-1.0000000000000000e+01 1.0000000000000000e+01
ITEM: ATOMS id type xs ys zs
12 5 0.512441 0.680582 0.477804
11 4 0.520796 0.699693 0.472329
15 5 0.53586 0.722753 0.463955
10 5 0.530934 0.716705 0.465561
13 5 0.567488 0.748736 0.456813
14 4 0.550072 0.738686 0.460075
3 5 0.462361 0.600034 0.574737
1 5 0.459189 0.622064 0.539872
2 3 0.459577 0.610932 0.559612
6 5 0.460621 0.624048 0.53479
5 4 0.46836 0.633418 0.515815
4 5 0.480311 0.647303 0.503546
9 5 0.486725 0.651626 0.501661
8 3 0.498631 0.662482 0.491643
7 5 0.509187 0.67573 0.482312
ITEM: TIMESTEP
1500
ITEM: NUMBER OF ATOMS
15
ITEM: BOX BOUNDS pp pp pp
-1.0000000000000000e+01 1.0000000000000000e+01
-1.0000000000000000e+01 1.0000000000000000e+01
-1.0000000000000000e+01 1.0000000000000000e+01
ITEM: ATOMS id type xs ys zs
12 5 0.510201 0.682494 0.472865
11 4 0.523233 0.696913 0.469549
15 5 0.543672 0.717694 0.46336
10 5 0.537455 0.710967 0.465986
13 5 0.56625 0.750408 0.4579
14 4 0.554776 0.734945 0.458597
3 5 0.454884 0.610192 0.583123
1 5 0.4614 0.625472 0.546056
2 3 0.457578 0.617917 0.563098
6 5 0.463795 0.628135 0.536065
5 4 0.469311 0.632664 0.520688
4 5 0.478534 0.645336 0.505127
9 5 0.482492 0.650245 0.499608
8 3 0.493213 0.659643 0.484801
7 5 0.505085 0.674893 0.476442
ITEM: TIMESTEP
1600
ITEM: NUMBER OF ATOMS
15
ITEM: BOX BOUNDS pp pp pp
-1.0000000000000000e+01 1.0000000000000000e+01
-1.0000000000000000e+01 1.0000000000000000e+01
-1.0000000000000000e+01 1.0000000000000000e+01
ITEM: ATOMS id type xs ys zs
12 5 0.509498 0.681567 0.472061
11 4 0.524011 0.692011 0.467605
15 5 0.543085 0.706902 0.461939
10 5 0.539 0.70212 0.464626
13 5 0.561424 0.739109 0.459264
14 4 0.552042 0.723822 0.459385
3 5 0.445657 0.623951 0.575483
1 5 0.469114 0.628421 0.545431
2 3 0.457293 0.625666 0.561458
6 5 0.471229 0.630031 0.541861
5 4 0.475407 0.637888 0.523057
4 5 0.477156 0.649424 0.506832
9 5 0.480812 0.654881 0.500221
8 3 0.490396 0.663825 0.486536
7 5 0.504713 0.677169 0.476201
ITEM: TIMESTEP
1700
ITEM: NUMBER OF ATOMS
15
ITEM: BOX BOUNDS pp pp pp
-1.0000000000000000e+01 1.0000000000000000e+01
-1.0000000000000000e+01 1.0000000000000000e+01
-1.0000000000000000e+01 1.0000000000000000e+01
ITEM: ATOMS id type xs ys zs
12 5 0.506339 0.675322 0.468945
11 4 0.520774 0.687238 0.461922
15 5 0.541036 0.705195 0.459328
10 5 0.536125 0.699705 0.459878
13 5 0.571044 0.730875 0.455254
14 4 0.555647 0.719891 0.458421
3 5 0.443913 0.626585 0.580726
1 5 0.462216 0.635437 0.545659
2 3 0.451735 0.631794 0.563114
6 5 0.466598 0.636125 0.540919
5 4 0.478157 0.643217 0.527221
4 5 0.485115 0.650808 0.509914
9 5 0.486567 0.652863 0.503536
8 3 0.493544 0.664404 0.490052
7 5 0.501318 0.673997 0.474381
ITEM: TIMESTEP
1800
ITEM: NUMBER OF ATOMS
15
ITEM: BOX BOUNDS pp pp pp
-1.0000000000000000e+01 1.0000000000000000e+01
-1.0000000000000000e+01 1.0000000000000000e+01
-1.0000000000000000e+01 1.0000000000000000e+01
ITEM: ATOMS id type xs ys zs
12 5 0.51119 0.675355 0.468546
11 4 0.520876 0.690718 0.457964
15 5 0.542497 0.707815 0.449829
10 5 0.534238 0.703928 0.450286
13 5 0.582447 0.721618 0.452978
14 4 0.561648 0.716443 0.450572
3 5 0.434569 0.626788 0.588256
1 5 0.457437 0.638056 0.556615
2 3 0.446384 0.63297 0.572733
6 5 0.463093 0.642288 0.545289
5 4 0.471813 0.649316 0.52955
4 5 0.482238 0.648738 0.510378
9 5 0.486627 0.648208 0.502553
8 3 0.498942 0.65874 0.489039
7 5 0.506326 0.670833 0.475552
ITEM: TIMESTEP
1900
ITEM: NUMBER OF ATOMS
15
ITEM: BOX BOUNDS pp pp pp
-1.0000000000000000e+01 1.0000000000000000e+01
-1.0000000000000000e+01 1.0000000000000000e+01
-1.0000000000000000e+01 1.0000000000000000e+01
ITEM: ATOMS id type xs ys zs
12 5 0.510683 0.675868 0.475507
11 4 0.526902 0.682248 0.463971
15 5 0.548462 0.697898 0.451642
10 5 0.542154 0.694701 0.454505
13 5 0.576374 0.723015 0.43439
14 4 0.562606 0.710182 0.44227
3 5 0.438409 0.63606 0.587408
1 5 0.456099 0.638242 0.551001
2 3 0.44491 0.638143 0.570204
6 5 0.45904 0.642073 0.545844
5 4 0.470179 0.647575 0.528756
4 5 0.481316 0.654496 0.513979
9 5 0.484011 0.6556 0.507919
8 3 0.494568 0.665698 0.493198
7 5 0.505112 0.674355 0.481006
ITEM: TIMESTEP
2000
ITEM: NUMBER OF ATOMS
15
ITEM: BOX BOUNDS pp pp pp
-1.0000000000000000e+01 1.0000000000000000e+01
-1.0000000000000000e+01 1.0000000000000000e+01
-1.0000000000000000e+01 1.0000000000000000e+01
ITEM: ATOMS id type xs ys zs
12 5 0.519677 0.678576 0.48195
11 4 0.535458 0.682539 0.469823
15 5 0.550779 0.691335 0.452406
10 5 0.547539 0.689846 0.458251
13 5 0.564094 0.709821 0.421204
14 4 0.556917 0.698322 0.436384
3 5 0.436719 0.640058 0.584449
1 5 0.455791 0.642461 0.551102
2 3 0.444708 0.641408 0.568495
6 5 0.458105 0.644397 0.545347
5 4 0.465749 0.649663 0.527468
4 5 0.474337 0.659047 0.515794
9 5 0.48147 0.663569 0.508834
8 3 0.49598 0.670054 0.495653
7 5 0.513852 0.67692 0.485016
ITEM: TIMESTEP
2100
ITEM: NUMBER OF ATOMS
15
ITEM: BOX BOUNDS pp pp pp
-1.0000000000000000e+01 1.0000000000000000e+01
-1.0000000000000000e+01 1.0000000000000000e+01
-1.0000000000000000e+01 1.0000000000000000e+01
ITEM: ATOMS id type xs ys zs
13 5 0.563382 0.692428 0.411165
8 3 0.502302 0.668637 0.50194
12 5 0.525546 0.677786 0.486606
11 4 0.538069 0.685623 0.472148
15 5 0.549301 0.689453 0.447341
10 5 0.546961 0.689464 0.455032
14 4 0.555378 0.690043 0.429436
7 5 0.519337 0.674194 0.491836
2 3 0.441569 0.644193 0.567481
1 5 0.447994 0.652159 0.552834
6 5 0.453086 0.653234 0.544346
5 4 0.461816 0.655621 0.528934
4 5 0.476213 0.66139 0.515195
9 5 0.484531 0.666424 0.511399
3 5 0.43537 0.635235 0.584367
ITEM: TIMESTEP
2200
ITEM: NUMBER OF ATOMS
15
ITEM: BOX BOUNDS pp pp pp
-1.0000000000000000e+01 1.0000000000000000e+01
-1.0000000000000000e+01 1.0000000000000000e+01
-1.0000000000000000e+01 1.0000000000000000e+01
ITEM: ATOMS id type xs ys zs
13 5 0.563483 0.67817 0.407264
8 3 0.506655 0.672085 0.507295
12 5 0.521489 0.677915 0.48456
11 4 0.532691 0.684225 0.469935
15 5 0.547622 0.683281 0.44574
10 5 0.544455 0.683052 0.452599
14 4 0.557092 0.682276 0.425916
7 5 0.517806 0.675424 0.491366
2 3 0.435596 0.644972 0.563956
1 5 0.447266 0.655917 0.54879
6 5 0.452084 0.656713 0.54497
5 4 0.468222 0.664219 0.533685
4 5 0.486455 0.667429 0.521623
9 5 0.490531 0.669659 0.519935
3 5 0.428288 0.636887 0.581576
ITEM: TIMESTEP
2300
ITEM: NUMBER OF ATOMS
15
ITEM: BOX BOUNDS pp pp pp
-1.0000000000000000e+01 1.0000000000000000e+01
-1.0000000000000000e+01 1.0000000000000000e+01
-1.0000000000000000e+01 1.0000000000000000e+01
ITEM: ATOMS id type xs ys zs
13 5 0.5687 0.672325 0.410508
8 3 0.505145 0.683062 0.506322
12 5 0.52061 0.679734 0.482938
11 4 0.530407 0.6757 0.467811
15 5 0.543564 0.673066 0.440944
10 5 0.539197 0.671334 0.450137
14 4 0.555479 0.675058 0.424606
7 5 0.516402 0.679978 0.489881
2 3 0.432632 0.649104 0.559686
1 5 0.452535 0.654381 0.558102
6 5 0.461811 0.656462 0.554562
5 4 0.478145 0.664844 0.543245
4 5 0.487926 0.672429 0.527513
9 5 0.493734 0.678816 0.519954
3 5 0.411894 0.645941 0.562121
ITEM: TIMESTEP
2400
ITEM: NUMBER OF ATOMS
15
ITEM: BOX BOUNDS pp pp pp
-1.0000000000000000e+01 1.0000000000000000e+01
-1.0000000000000000e+01 1.0000000000000000e+01
-1.0000000000000000e+01 1.0000000000000000e+01
ITEM: ATOMS id type xs ys zs
13 5 0.566189 0.663297 0.410701
8 3 0.506407 0.676965 0.509537
12 5 0.515692 0.680144 0.482714
11 4 0.525022 0.675707 0.464806
15 5 0.543227 0.669261 0.444287
10 5 0.53905 0.669666 0.450365
14 4 0.554612 0.664689 0.426754
7 5 0.513068 0.678836 0.489278
2 3 0.436101 0.654894 0.553858
1 5 0.45418 0.662054 0.55264
6 5 0.460906 0.666879 0.551758
5 4 0.478094 0.672204 0.545516
4 5 0.494044 0.674459 0.532951
9 5 0.496873 0.676385 0.526888
3 5 0.416286 0.650101 0.557476
ITEM: TIMESTEP
2500
ITEM: NUMBER OF ATOMS
15
ITEM: BOX BOUNDS pp pp pp
-1.0000000000000000e+01 1.0000000000000000e+01
-1.0000000000000000e+01 1.0000000000000000e+01
-1.0000000000000000e+01 1.0000000000000000e+01
ITEM: ATOMS id type xs ys zs
13 5 0.561233 0.649087 0.419401
8 3 0.511513 0.674239 0.509033
12 5 0.523277 0.672597 0.483824
11 4 0.527265 0.670118 0.464586
15 5 0.540447 0.670865 0.442476
10 5 0.535994 0.673047 0.448399
14 4 0.54797 0.660445 0.430194
7 5 0.519947 0.671549 0.491987
2 3 0.436325 0.662261 0.555603
1 5 0.454073 0.670309 0.551974
6 5 0.458312 0.673581 0.549751
5 4 0.475185 0.677458 0.540483
4 5 0.493128 0.67896 0.530001
9 5 0.49791 0.678711 0.525315
3 5 0.419149 0.652253 0.557075
ITEM: TIMESTEP
2600
ITEM: NUMBER OF ATOMS
15
ITEM: BOX BOUNDS pp pp pp
-1.0000000000000000e+01 1.0000000000000000e+01
-1.0000000000000000e+01 1.0000000000000000e+01
-1.0000000000000000e+01 1.0000000000000000e+01
ITEM: ATOMS id type xs ys zs
13 5 0.557349 0.646294 0.408202
8 3 0.511754 0.678024 0.509242
12 5 0.525453 0.676047 0.484936
11 4 0.534361 0.668597 0.468766
15 5 0.543224 0.659519 0.443688
10 5 0.541316 0.66214 0.448648
14 4 0.547144 0.650347 0.425536
7 5 0.52222 0.678352 0.492525
2 3 0.432096 0.670292 0.559793
1 5 0.448562 0.672642 0.550616
6 5 0.455829 0.67643 0.546298
5 4 0.474347 0.678275 0.538241
4 5 0.490554 0.678528 0.530705
9 5 0.49926 0.678212 0.524258
3 5 0.41682 0.660768 0.566968
ITEM: TIMESTEP
2700
ITEM: NUMBER OF ATOMS
15
ITEM: BOX BOUNDS pp pp pp
-1.0000000000000000e+01 1.0000000000000000e+01
-1.0000000000000000e+01 1.0000000000000000e+01
-1.0000000000000000e+01 1.0000000000000000e+01
ITEM: ATOMS id type xs ys zs
13 5 0.546469 0.643762 0.404314
8 3 0.510684 0.68031 0.504138
12 5 0.527761 0.671059 0.486523
11 4 0.541908 0.66416 0.47063
15 5 0.547918 0.652485 0.444934
10 5 0.546454 0.65603 0.453559
14 4 0.547902 0.645733 0.426195
7 5 0.524048 0.673809 0.489993
2 3 0.430474 0.676919 0.564789
1 5 0.448333 0.670838 0.553694
6 5 0.456518 0.67394 0.548123
5 4 0.472729 0.67947 0.536289
4 5 0.489132 0.682784 0.522103
9 5 0.493789 0.683326 0.517788
3 5 0.412173 0.678781 0.574887
ITEM: TIMESTEP
2800
ITEM: NUMBER OF ATOMS
15
ITEM: BOX BOUNDS pp pp pp
-1.0000000000000000e+01 1.0000000000000000e+01
-1.0000000000000000e+01 1.0000000000000000e+01
-1.0000000000000000e+01 1.0000000000000000e+01
ITEM: ATOMS id type xs ys zs
13 5 0.548434 0.633836 0.410996
8 3 0.506712 0.671362 0.504198
12 5 0.526337 0.666003 0.487144
11 4 0.536752 0.664375 0.472468
15 5 0.545514 0.653217 0.446579
10 5 0.545297 0.657163 0.455295
14 4 0.5497 0.644014 0.429601
7 5 0.51979 0.668987 0.493294
2 3 0.437002 0.686997 0.564194
1 5 0.452382 0.686535 0.550712
6 5 0.458454 0.687561 0.545617
5 4 0.472711 0.681155 0.530199
4 5 0.484519 0.675251 0.518091
9 5 0.490366 0.674158 0.51299
3 5 0.423142 0.681486 0.577962
ITEM: TIMESTEP
2900
ITEM: NUMBER OF ATOMS
15
ITEM: BOX BOUNDS pp pp pp
-1.0000000000000000e+01 1.0000000000000000e+01
-1.0000000000000000e+01 1.0000000000000000e+01
-1.0000000000000000e+01 1.0000000000000000e+01
ITEM: ATOMS id type xs ys zs
13 5 0.56056 0.628567 0.417757
8 3 0.503856 0.666865 0.505809
12 5 0.521441 0.660304 0.484439
11 4 0.53172 0.657762 0.467565
15 5 0.545481 0.652063 0.446408
10 5 0.542255 0.653278 0.449495
14 4 0.554166 0.642179 0.430425
7 5 0.518025 0.662022 0.491081
2 3 0.440521 0.695 0.564173
1 5 0.449894 0.693419 0.547626
6 5 0.45499 0.692056 0.542194
5 4 0.46887 0.682928 0.530858
4 5 0.483641 0.676086 0.521397
9 5 0.489981 0.672783 0.517544
3 5 0.435455 0.699958 0.5844
ITEM: TIMESTEP
3000
ITEM: NUMBER OF ATOMS
15
ITEM: BOX BOUNDS pp pp pp
-1.0000000000000000e+01 1.0000000000000000e+01
-1.0000000000000000e+01 1.0000000000000000e+01
-1.0000000000000000e+01 1.0000000000000000e+01
ITEM: ATOMS id type xs ys zs
13 5 0.574075 0.635078 0.416679
8 3 0.499231 0.667055 0.50093
12 5 0.520116 0.658014 0.479243
11 4 0.530509 0.648506 0.463295
15 5 0.547911 0.637697 0.443437
10 5 0.540681 0.641036 0.449464
14 4 0.559054 0.6371 0.429797
7 5 0.515446 0.661673 0.486633
2 3 0.441242 0.704365 0.569796
1 5 0.452211 0.696303 0.556833
6 5 0.456675 0.694029 0.551224
5 4 0.466802 0.684006 0.536388
4 5 0.48049 0.678227 0.520559
9 5 0.484617 0.674088 0.515829
3 5 0.434092 0.72179 0.579685
ITEM: TIMESTEP
3100
ITEM: NUMBER OF ATOMS
15
ITEM: BOX BOUNDS pp pp pp
-1.0000000000000000e+01 1.0000000000000000e+01
-1.0000000000000000e+01 1.0000000000000000e+01
-1.0000000000000000e+01 1.0000000000000000e+01
ITEM: ATOMS id type xs ys zs
13 5 0.576216 0.632825 0.419718
15 5 0.548113 0.636335 0.449233
10 5 0.542216 0.63859 0.45423
14 4 0.562418 0.63601 0.434635
8 3 0.493192 0.665432 0.496925
12 5 0.508918 0.650224 0.475127
11 4 0.524326 0.643465 0.464356
7 5 0.503625 0.655323 0.481727
2 3 0.446187 0.713121 0.567387
1 5 0.457257 0.700934 0.556637
6 5 0.46311 0.698798 0.550795
5 4 0.473676 0.685997 0.537269
4 5 0.482317 0.677583 0.521008
9 5 0.485265 0.672975 0.513599
3 5 0.433353 0.728365 0.576782
ITEM: TIMESTEP
3200
ITEM: NUMBER OF ATOMS
15
ITEM: BOX BOUNDS pp pp pp
-1.0000000000000000e+01 1.0000000000000000e+01
-1.0000000000000000e+01 1.0000000000000000e+01
-1.0000000000000000e+01 1.0000000000000000e+01
ITEM: ATOMS id type xs ys zs
13 5 0.575232 0.625847 0.438023
15 5 0.538481 0.641047 0.449031
10 5 0.533727 0.644532 0.453154
14 4 0.557394 0.634346 0.442158
8 3 0.493316 0.659075 0.50074
12 5 0.505538 0.646771 0.483697
11 4 0.518106 0.646779 0.468273
7 5 0.502604 0.6478 0.487192
2 3 0.455835 0.717857 0.561294
1 5 0.464184 0.706623 0.546059
6 5 0.46919 0.704336 0.539339
5 4 0.476971 0.689392 0.526305
4 5 0.482336 0.674387 0.515781
9 5 0.483536 0.670381 0.51302
3 5 0.441917 0.723379 0.577165
ITEM: TIMESTEP
3300
ITEM: NUMBER OF ATOMS
15
ITEM: BOX BOUNDS pp pp pp
-1.0000000000000000e+01 1.0000000000000000e+01
-1.0000000000000000e+01 1.0000000000000000e+01
-1.0000000000000000e+01 1.0000000000000000e+01
ITEM: ATOMS id type xs ys zs
13 5 0.577555 0.62878 0.441813
15 5 0.538685 0.63413 0.451248
10 5 0.530459 0.63547 0.456275
14 4 0.55662 0.629065 0.446905
8 3 0.491546 0.659262 0.500592
12 5 0.503403 0.645803 0.481031
11 4 0.515947 0.641575 0.468543
7 5 0.498745 0.648942 0.487898
2 3 0.462575 0.724031 0.557242
1 5 0.463346 0.711454 0.542375
6 5 0.46616 0.707205 0.536376
5 4 0.473605 0.691193 0.524628
4 5 0.479465 0.675059 0.518119
9 5 0.483654 0.67093 0.513506
3 5 0.457928 0.731973 0.57554
ITEM: TIMESTEP
3400
ITEM: NUMBER OF ATOMS
15
ITEM: BOX BOUNDS pp pp pp
-1.0000000000000000e+01 1.0000000000000000e+01
-1.0000000000000000e+01 1.0000000000000000e+01
-1.0000000000000000e+01 1.0000000000000000e+01
ITEM: ATOMS id type xs ys zs
13 5 0.574592 0.624705 0.434791
15 5 0.543923 0.626451 0.457032
10 5 0.536633 0.627655 0.458844
14 4 0.55977 0.622889 0.448269
8 3 0.485367 0.659651 0.493915
12 5 0.502828 0.642751 0.479477
11 4 0.518905 0.630987 0.467952
7 5 0.498794 0.644976 0.482005
2 3 0.465682 0.73344 0.558833
1 5 0.464923 0.715056 0.551364
6 5 0.466458 0.709109 0.545505
5 4 0.468018 0.694284 0.530796
4 5 0.472976 0.679589 0.515499
9 5 0.477421 0.674914 0.507981
3 5 0.465956 0.752293 0.567971
ITEM: TIMESTEP
3500
ITEM: NUMBER OF ATOMS
15
ITEM: BOX BOUNDS pp pp pp
-1.0000000000000000e+01 1.0000000000000000e+01
-1.0000000000000000e+01 1.0000000000000000e+01
-1.0000000000000000e+01 1.0000000000000000e+01
ITEM: ATOMS id type xs ys zs
13 5 0.571744 0.611763 0.435736
15 5 0.539947 0.6244 0.45985
10 5 0.534383 0.627192 0.461927
14 4 0.55567 0.61646 0.449216
8 3 0.483774 0.660947 0.497693
12 5 0.50576 0.645649 0.483015
11 4 0.518068 0.635082 0.473285
7 5 0.497004 0.651172 0.487793
2 3 0.46786 0.733638 0.55159
1 5 0.469112 0.718155 0.542437
6 5 0.471145 0.712914 0.537261
5 4 0.470931 0.695474 0.528233
4 5 0.472827 0.680184 0.516807
9 5 0.476576 0.675782 0.510363
3 5 0.468886 0.749587 0.564777
ITEM: TIMESTEP
3600
ITEM: NUMBER OF ATOMS
15
ITEM: BOX BOUNDS pp pp pp
-1.0000000000000000e+01 1.0000000000000000e+01
-1.0000000000000000e+01 1.0000000000000000e+01
-1.0000000000000000e+01 1.0000000000000000e+01
ITEM: ATOMS id type xs ys zs
13 5 0.55584 0.596099 0.447989
15 5 0.535166 0.626243 0.458999
10 5 0.529496 0.631871 0.460877
14 4 0.546343 0.613334 0.453262
8 3 0.491949 0.658789 0.50467
12 5 0.507321 0.645613 0.48837
11 4 0.517923 0.639681 0.473915
7 5 0.502634 0.648624 0.492723
2 3 0.468725 0.73483 0.548483
1 5 0.46895 0.722303 0.532981
6 5 0.470361 0.716099 0.527664
5 4 0.474072 0.698264 0.51866
4 5 0.478503 0.679149 0.515694
9 5 0.483235 0.67499 0.512392
3 5 0.470457 0.749213 0.56433
ITEM: TIMESTEP
3700
ITEM: NUMBER OF ATOMS
15
ITEM: BOX BOUNDS pp pp pp
-1.0000000000000000e+01 1.0000000000000000e+01
-1.0000000000000000e+01 1.0000000000000000e+01
-1.0000000000000000e+01 1.0000000000000000e+01
ITEM: ATOMS id type xs ys zs
13 5 0.549737 0.583211 0.445518
15 5 0.533039 0.616435 0.459075
10 5 0.529962 0.62121 0.4637
14 4 0.543628 0.601532 0.450535
8 3 0.495222 0.66634 0.503886
12 5 0.508769 0.646335 0.490518
11 4 0.521079 0.635749 0.475862
7 5 0.505162 0.651213 0.491506
2 3 0.468226 0.742046 0.546997
1 5 0.469035 0.726485 0.534577
6 5 0.469354 0.719166 0.531053
5 4 0.474167 0.700549 0.52183
4 5 0.479337 0.683749 0.516996
9 5 0.485343 0.679317 0.512329
3 5 0.465603 0.760448 0.556508
ITEM: TIMESTEP
3800
ITEM: NUMBER OF ATOMS
15
ITEM: BOX BOUNDS pp pp pp
-1.0000000000000000e+01 1.0000000000000000e+01
-1.0000000000000000e+01 1.0000000000000000e+01
-1.0000000000000000e+01 1.0000000000000000e+01
ITEM: ATOMS id type xs ys zs
13 5 0.547373 0.579428 0.43645
15 5 0.530805 0.602834 0.464757
10 5 0.528791 0.609119 0.469965
14 4 0.538377 0.591128 0.45204
8 3 0.497611 0.670485 0.49692
12 5 0.512633 0.643728 0.48575
11 4 0.523522 0.627287 0.477708
7 5 0.5065 0.654613 0.486633
2 3 0.463415 0.750494 0.54563
1 5 0.466977 0.730752 0.540622
6 5 0.469321 0.723272 0.538025
5 4 0.477939 0.705042 0.529435
4 5 0.485006 0.690212 0.517498
9 5 0.491023 0.685367 0.509959
3 5 0.45983 0.771802 0.546876
ITEM: TIMESTEP
3900
ITEM: NUMBER OF ATOMS
15
ITEM: BOX BOUNDS pp pp pp
-1.0000000000000000e+01 1.0000000000000000e+01
-1.0000000000000000e+01 1.0000000000000000e+01
-1.0000000000000000e+01 1.0000000000000000e+01
ITEM: ATOMS id type xs ys zs
13 5 0.539927 0.574552 0.447334
15 5 0.524812 0.607097 0.463871
10 5 0.523619 0.6123 0.46727
14 4 0.531613 0.589795 0.456744
8 3 0.501811 0.668333 0.505196
12 5 0.510289 0.643236 0.49224
11 4 0.515654 0.629116 0.47849
7 5 0.507793 0.651536 0.49583
2 3 0.463591 0.747022 0.540696
1 5 0.474489 0.732921 0.5317
6 5 0.477621 0.726041 0.528119
5 4 0.486018 0.709784 0.51982
4 5 0.495814 0.692761 0.513017
9 5 0.498316 0.689554 0.511606
3 5 0.449935 0.761902 0.54712
ITEM: TIMESTEP
4000
ITEM: NUMBER OF ATOMS
15
ITEM: BOX BOUNDS pp pp pp
-1.0000000000000000e+01 1.0000000000000000e+01
-1.0000000000000000e+01 1.0000000000000000e+01
-1.0000000000000000e+01 1.0000000000000000e+01
ITEM: ATOMS id type xs ys zs
13 5 0.529263 0.573875 0.456194
15 5 0.519006 0.608903 0.468157
10 5 0.516742 0.615183 0.470874
14 4 0.523425 0.591275 0.463356
8 3 0.506127 0.670669 0.507371
12 5 0.509775 0.644024 0.494737
11 4 0.510338 0.629625 0.482485
7 5 0.508865 0.652767 0.497505
2 3 0.465523 0.741515 0.531867
1 5 0.478904 0.734971 0.52055
6 5 0.48353 0.729319 0.517317
5 4 0.493351 0.712066 0.515772
4 5 0.502209 0.697063 0.514654
9 5 0.503702 0.688361 0.513398
3 5 0.450465 0.745234 0.544913
ITEM: TIMESTEP
4100
ITEM: NUMBER OF ATOMS
15
ITEM: BOX BOUNDS pp pp pp
-1.0000000000000000e+01 1.0000000000000000e+01
-1.0000000000000000e+01 1.0000000000000000e+01
-1.0000000000000000e+01 1.0000000000000000e+01
ITEM: ATOMS id type xs ys zs
13 5 0.519275 0.570331 0.454577
15 5 0.513001 0.602431 0.476139
10 5 0.51115 0.610077 0.47888
14 4 0.515647 0.586107 0.466957
11 4 0.510411 0.626727 0.489294
12 5 0.51204 0.645989 0.498227
7 5 0.510925 0.654415 0.497752
5 4 0.502268 0.716435 0.515307
8 3 0.511152 0.673992 0.501002
4 5 0.509877 0.700356 0.507088
9 5 0.513045 0.692071 0.505704
2 3 0.461645 0.742542 0.528668
1 5 0.478958 0.730895 0.524168
6 5 0.485316 0.729217 0.521667