LAMMPS Description

     15  atoms
     14  bonds
     13  angles
     0  dihedrals
     0  impropers

     8  atom types
     3  bond types
     4  angle types

  -10 10 xlo xhi
  -10 10 ylo yhi
  -10 10 zlo zhi

Masses

1 1  # NP
2 0.5  # GR
3 0.5  # A
4 0.5  # B
5 0.25  # SA
6 0.25  # ACTIVE
7 0.25  # DORMANT
8 0.25  # ANCHOR

Atoms  # angle

1 2 5 0.5 1.0 0.0
2 2 3 0.0 1.0 0.0
3 2 5 -0.5 1.0 0.0
4 3 5 0.5 2.25 0.0
5 3 4 0.0 2.25 0.0
6 3 5 -0.5 2.25 0.0
7 4 5 0.5 3.4 0.0
8 4 3 0.0 3.4 0.0
9 4 5 -0.5 3.4 0.0
10 5 5 0.5 4.55 0.0
11 5 4 0.0 4.55 0.0
12 5 5 -0.5 4.55 0.0
13 6 5 0.5 5.7 0.0
14 6 4 0.0 5.7 0.0
15 6 5 -0.5 5.7 0.0

Bonds

1 1 1 2
2 1 2 3
3 2 4 5
4 2 5 6
5 1 7 8
6 1 8 9
7 2 10 11
8 2 11 12
9 2 13 14
10 2 14 15
11 3 1 6
12 3 4 9
13 3 7 12
14 3 10 15

Angles

6 3 1 6 5
7 3 7 12 11
8 3 5 4 9
9 3 10 15 14
10 3 11 10 15
11 3 4 9 8
12 3 2 1 6
13 3 8 7 12
1 1 1 2 3
2 2 4 5 6
3 1 7 8 9
4 2 10 11 12
5 2 13 14 15

