LAMMPS (7 Aug 2019)
OMP_NUM_THREADS environment is not set. Defaulting to 1 thread. (src/comm.cpp:93)
  using 1 OpenMP thread(s) per MPI task
Reading data file ...
  orthogonal box = (-20 -20 -20) to (20 20 20)
  1 by 1 by 1 MPI processor grid
  reading atoms ...
  2 atoms
Finding 1-2 1-3 1-4 neighbors ...
  special bond factors lj:   0          0          0         
  special bond factors coul: 0          0          0         
  0 = max # of 1-2 neighbors
  0 = max # of 1-3 neighbors
  0 = max # of 1-4 neighbors
  1 = max # of special neighbors
  special bonds CPU = 1.69277e-05 secs
  read_data CPU = 0.000322819 secs
1 atoms in group atom1
1 atoms in group atom2
Neighbor list info ...
  update every 1 steps, delay 10 steps, check yes
  max neighbors/atom: 2000, page size: 100000
  master list distance cutoff = 3.8
  ghost atom cutoff = 3.8
  binsize = 1.9, bins = 22 22 22
  6 neighbor lists, perpetual/occasional/extra = 5 1 0
  (1) pair lj/expand/twopiece, perpetual, skip from (6)
      attributes: half, newton on
      pair build: skip
      stencil: none
      bin: none
  (2) pair soft/shift, perpetual, skip from (6)
      attributes: half, newton on
      pair build: skip
      stencil: none
      bin: none
  (3) pair zero, perpetual, skip from (6)
      attributes: half, newton on
      pair build: skip
      stencil: none
      bin: none
  (4) pair morse, perpetual, skip from (6)
      attributes: half, newton on
      pair build: skip
      stencil: none
      bin: none
  (5) compute pair/local, occasional, copy from (6)
      attributes: half, newton on
      pair build: copy
      stencil: none
      bin: none
  (6) neighbor class addition, perpetual
      attributes: half, newton on
      pair build: half/bin/newton
      stencil: half/bin/3d/newton
      bin: standard
Setting up Verlet run ...
  Unit style    : lj
  Current step  : 0
  Time step     : 0.001
Per MPI rank memory allocation (min/avg/max) = 8.258 | 8.258 | 8.258 Mbytes
Step Temp E_pair E_mol TotEng Press 
       0            0 -0.00048816204            0 -0.00048816204 -4.5754015e-08 
     200            0 -0.00048816204            0 -0.00048816204 -4.5754015e-08 
     400            0 -0.00048816204            0 -0.00048816204 -4.5754015e-08 
     600            0 -0.00048816204            0 -0.00048816204 -4.5754015e-08 
     800            0 -0.00048816204            0 -0.00048816204 -4.5754015e-08 
    1000            0 -0.00048816204            0 -0.00048816204 -4.5754015e-08 
Loop time of 0.00391006 on 1 procs for 1000 steps with 2 atoms

Performance: 22096821.073 tau/day, 255750.244 timesteps/s
0.0% CPU use with 1 MPI tasks x 1 OpenMP threads

MPI task timing breakdown:
Section |  min time  |  avg time  |  max time  |%varavg| %total
---------------------------------------------------------------
Pair    | 0.00047755 | 0.00047755 | 0.00047755 |   0.0 | 12.21
Bond    | 0.00030637 | 0.00030637 | 0.00030637 |   0.0 |  7.84
Neigh   | 0          | 0          | 0          |   0.0 |  0.00
Comm    | 0.00051856 | 0.00051856 | 0.00051856 |   0.0 | 13.26
Output  | 0.0012326  | 0.0012326  | 0.0012326  |   0.0 | 31.52
Modify  | 0.00053978 | 0.00053978 | 0.00053978 |   0.0 | 13.80
Other   |            | 0.0008352  |            |       | 21.36

Nlocal:    2 ave 2 max 2 min
Histogram: 1 0 0 0 0 0 0 0 0 0
Nghost:    0 ave 0 max 0 min
Histogram: 1 0 0 0 0 0 0 0 0 0
Neighs:    1 ave 1 max 1 min
Histogram: 1 0 0 0 0 0 0 0 0 0

Total # of neighbors = 1
Ave neighs/atom = 0.5
Ave special neighs/atom = 0
Neighbor list builds = 0
Dangerous builds = 0
Displacing atoms ...
Neighbor list info ...
  update every 1 steps, delay 10 steps, check yes
  max neighbors/atom: 2000, page size: 100000
  master list distance cutoff = 3.8
  ghost atom cutoff = 3.8
  binsize = 1.9, bins = 22 22 22
  6 neighbor lists, perpetual/occasional/extra = 5 1 0
  (1) pair lj/expand/twopiece, perpetual, skip from (6)
      attributes: half, newton on
      pair build: skip
      stencil: none
      bin: none
  (2) pair soft/shift, perpetual, skip from (6)
      attributes: half, newton on
      pair build: skip
      stencil: none
      bin: none
  (3) pair zero, perpetual, skip from (6)
      attributes: half, newton on
      pair build: skip
      stencil: none
      bin: none
  (4) pair morse, perpetual, skip from (6)
      attributes: half, newton on
      pair build: skip
      stencil: none
      bin: none
  (5) compute pair/local, occasional, copy from (6)
      attributes: half, newton on
      pair build: copy
      stencil: none
      bin: none
  (6) neighbor class addition, perpetual
      attributes: half, newton on
      pair build: half/bin/newton
      stencil: half/bin/3d/newton
      bin: standard
Setting up Verlet run ...
  Unit style    : lj
  Current step  : 1000
  Time step     : 0.001
Per MPI rank memory allocation (min/avg/max) = 9.126 | 9.126 | 9.126 Mbytes
Step Temp E_pair E_mol TotEng Press 
    1000            0 -0.000518497            0 -0.000518497 -4.876011e-08 
    1200            0 -0.000518497            0 -0.000518497 -4.876011e-08 
    1400            0 -0.000518497            0 -0.000518497 -4.876011e-08 
    1600            0 -0.000518497            0 -0.000518497 -4.876011e-08 
    1800            0 -0.000518497            0 -0.000518497 -4.876011e-08 
    2000            0 -0.000518497            0 -0.000518497 -4.876011e-08 
Loop time of 0.00406194 on 1 procs for 1000 steps with 2 atoms

Performance: 21270638.352 tau/day, 246187.944 timesteps/s
384.7% CPU use with 1 MPI tasks x 1 OpenMP threads

MPI task timing breakdown:
Section |  min time  |  avg time  |  max time  |%varavg| %total
---------------------------------------------------------------
Pair    | 0.00052333 | 0.00052333 | 0.00052333 |   0.0 | 12.88
Bond    | 0.00029659 | 0.00029659 | 0.00029659 |   0.0 |  7.30
Neigh   | 0          | 0          | 0          |   0.0 |  0.00
Comm    | 0.0005374  | 0.0005374  | 0.0005374  |   0.0 | 13.23
Output  | 0.0013437  | 0.0013437  | 0.0013437  |   0.0 | 33.08
Modify  | 0.00051975 | 0.00051975 | 0.00051975 |   0.0 | 12.80
Other   |            | 0.0008411  |            |       | 20.71

Nlocal:    2 ave 2 max 2 min
Histogram: 1 0 0 0 0 0 0 0 0 0
Nghost:    0 ave 0 max 0 min
Histogram: 1 0 0 0 0 0 0 0 0 0
Neighs:    1 ave 1 max 1 min
Histogram: 1 0 0 0 0 0 0 0 0 0

Total # of neighbors = 1
Ave neighs/atom = 0.5
Ave special neighs/atom = 0
Neighbor list builds = 0
Dangerous builds = 0
Displacing atoms ...
Neighbor list info ...
  update every 1 steps, delay 10 steps, check yes
  max neighbors/atom: 2000, page size: 100000
  master list distance cutoff = 3.8
  ghost atom cutoff = 3.8
  binsize = 1.9, bins = 22 22 22
  6 neighbor lists, perpetual/occasional/extra = 5 1 0
  (1) pair lj/expand/twopiece, perpetual, skip from (6)
      attributes: half, newton on
      pair build: skip
      stencil: none
      bin: none
  (2) pair soft/shift, perpetual, skip from (6)
      attributes: half, newton on
      pair build: skip
      stencil: none
      bin: none
  (3) pair zero, perpetual, skip from (6)
      attributes: half, newton on
      pair build: skip
      stencil: none
      bin: none
  (4) pair morse, perpetual, skip from (6)
      attributes: half, newton on
      pair build: skip
      stencil: none
      bin: none
  (5) compute pair/local, occasional, copy from (6)
      attributes: half, newton on
      pair build: copy
      stencil: none
      bin: none
  (6) neighbor class addition, perpetual
      attributes: half, newton on
      pair build: half/bin/newton
      stencil: half/bin/3d/newton
      bin: standard
Setting up Verlet run ...
  Unit style    : lj
  Current step  : 2000
  Time step     : 0.001
Per MPI rank memory allocation (min/avg/max) = 9.126 | 9.126 | 9.126 Mbytes
Step Temp E_pair E_mol TotEng Press 
    2000            0 -0.00055105365            0 -0.00055105365 -5.1998378e-08 
    2200            0 -0.00055105365            0 -0.00055105365 -5.1998378e-08 
    2400            0 -0.00055105365            0 -0.00055105365 -5.1998378e-08 
    2600            0 -0.00055105365            0 -0.00055105365 -5.1998378e-08 
    2800            0 -0.00055105365            0 -0.00055105365 -5.1998378e-08 
    3000            0 -0.00055105365            0 -0.00055105365 -5.1998378e-08 
Loop time of 0.00413108 on 1 procs for 1000 steps with 2 atoms

Performance: 20914634.132 tau/day, 242067.525 timesteps/s
0.0% CPU use with 1 MPI tasks x 1 OpenMP threads

MPI task timing breakdown:
Section |  min time  |  avg time  |  max time  |%varavg| %total
---------------------------------------------------------------
Pair    | 0.00049782 | 0.00049782 | 0.00049782 |   0.0 | 12.05
Bond    | 0.00031924 | 0.00031924 | 0.00031924 |   0.0 |  7.73
Neigh   | 0          | 0          | 0          |   0.0 |  0.00
Comm    | 0.00052738 | 0.00052738 | 0.00052738 |   0.0 | 12.77
Output  | 0.0014136  | 0.0014136  | 0.0014136  |   0.0 | 34.22
Modify  | 0.00052667 | 0.00052667 | 0.00052667 |   0.0 | 12.75
Other   |            | 0.0008464  |            |       | 20.49

Nlocal:    2 ave 2 max 2 min
Histogram: 1 0 0 0 0 0 0 0 0 0
Nghost:    0 ave 0 max 0 min
Histogram: 1 0 0 0 0 0 0 0 0 0
Neighs:    1 ave 1 max 1 min
Histogram: 1 0 0 0 0 0 0 0 0 0

Total # of neighbors = 1
Ave neighs/atom = 0.5
Ave special neighs/atom = 0
Neighbor list builds = 0
Dangerous builds = 0
Displacing atoms ...
Neighbor list info ...
  update every 1 steps, delay 10 steps, check yes
  max neighbors/atom: 2000, page size: 100000
  master list distance cutoff = 3.8
  ghost atom cutoff = 3.8
  binsize = 1.9, bins = 22 22 22
  6 neighbor lists, perpetual/occasional/extra = 5 1 0
  (1) pair lj/expand/twopiece, perpetual, skip from (6)
      attributes: half, newton on
      pair build: skip
      stencil: none
      bin: none
  (2) pair soft/shift, perpetual, skip from (6)
      attributes: half, newton on
      pair build: skip
      stencil: none
      bin: none
  (3) pair zero, perpetual, skip from (6)
      attributes: half, newton on
      pair build: skip
      stencil: none
      bin: none
  (4) pair morse, perpetual, skip from (6)
      attributes: half, newton on
      pair build: skip
      stencil: none
      bin: none
  (5) compute pair/local, occasional, copy from (6)
      attributes: half, newton on
      pair build: copy
      stencil: none
      bin: none
  (6) neighbor class addition, perpetual
      attributes: half, newton on
      pair build: half/bin/newton
      stencil: half/bin/3d/newton
      bin: standard
Setting up Verlet run ...
  Unit style    : lj
  Current step  : 3000
  Time step     : 0.001
Per MPI rank memory allocation (min/avg/max) = 9.126 | 9.126 | 9.126 Mbytes
Step Temp E_pair E_mol TotEng Press 
    3000            0 -0.00058601986            0 -0.00058601986 -5.5489474e-08 
    3200            0 -0.00058601986            0 -0.00058601986 -5.5489474e-08 
    3400            0 -0.00058601986            0 -0.00058601986 -5.5489474e-08 
    3600            0 -0.00058601986            0 -0.00058601986 -5.5489474e-08 
    3800            0 -0.00058601986            0 -0.00058601986 -5.5489474e-08 
    4000            0 -0.00058601986            0 -0.00058601986 -5.5489474e-08 
Loop time of 0.00496292 on 1 procs for 1000 steps with 2 atoms

Performance: 17409101.922 tau/day, 201494.235 timesteps/s
0.0% CPU use with 1 MPI tasks x 1 OpenMP threads

MPI task timing breakdown:
Section |  min time  |  avg time  |  max time  |%varavg| %total
---------------------------------------------------------------
Pair    | 0.00059676 | 0.00059676 | 0.00059676 |   0.0 | 12.02
Bond    | 0.00035238 | 0.00035238 | 0.00035238 |   0.0 |  7.10
Neigh   | 0          | 0          | 0          |   0.0 |  0.00
Comm    | 0.00056791 | 0.00056791 | 0.00056791 |   0.0 | 11.44
Output  | 0.0018814  | 0.0018814  | 0.0018814  |   0.0 | 37.91
Modify  | 0.0006268  | 0.0006268  | 0.0006268  |   0.0 | 12.63
Other   |            | 0.0009377  |            |       | 18.89

Nlocal:    2 ave 2 max 2 min
Histogram: 1 0 0 0 0 0 0 0 0 0
Nghost:    0 ave 0 max 0 min
Histogram: 1 0 0 0 0 0 0 0 0 0
Neighs:    1 ave 1 max 1 min
Histogram: 1 0 0 0 0 0 0 0 0 0

Total # of neighbors = 1
Ave neighs/atom = 0.5
Ave special neighs/atom = 0
Neighbor list builds = 0
Dangerous builds = 0
Displacing atoms ...
Neighbor list info ...
  update every 1 steps, delay 10 steps, check yes
  max neighbors/atom: 2000, page size: 100000
  master list distance cutoff = 3.8
  ghost atom cutoff = 3.8
  binsize = 1.9, bins = 22 22 22
  6 neighbor lists, perpetual/occasional/extra = 5 1 0
  (1) pair lj/expand/twopiece, perpetual, skip from (6)
      attributes: half, newton on
      pair build: skip
      stencil: none
      bin: none
  (2) pair soft/shift, perpetual, skip from (6)
      attributes: half, newton on
      pair build: skip
      stencil: none
      bin: none
  (3) pair zero, perpetual, skip from (6)
      attributes: half, newton on
      pair build: skip
      stencil: none
      bin: none
  (4) pair morse, perpetual, skip from (6)
      attributes: half, newton on
      pair build: skip
      stencil: none
      bin: none
  (5) compute pair/local, occasional, copy from (6)
      attributes: half, newton on
      pair build: copy
      stencil: none
      bin: none
  (6) neighbor class addition, perpetual
      attributes: half, newton on
      pair build: half/bin/newton
      stencil: half/bin/3d/newton
      bin: standard
Setting up Verlet run ...
  Unit style    : lj
  Current step  : 4000
  Time step     : 0.001
Per MPI rank memory allocation (min/avg/max) = 9.126 | 9.126 | 9.126 Mbytes
Step Temp E_pair E_mol TotEng Press 
    4000            0 -0.00062360153            0 -0.00062360153 -5.9256131e-08 
    4200            0 -0.00062360153            0 -0.00062360153 -5.9256131e-08 
    4400            0 -0.00062360153            0 -0.00062360153 -5.9256131e-08 
    4600            0 -0.00062360153            0 -0.00062360153 -5.9256131e-08 
    4800            0 -0.00062360153            0 -0.00062360153 -5.9256131e-08 
    5000            0 -0.00062360153            0 -0.00062360153 -5.9256131e-08 
Loop time of 0.00424385 on 1 procs for 1000 steps with 2 atoms

Performance: 20358868.854 tau/day, 235635.056 timesteps/s
368.2% CPU use with 1 MPI tasks x 1 OpenMP threads

MPI task timing breakdown:
Section |  min time  |  avg time  |  max time  |%varavg| %total
---------------------------------------------------------------
Pair    | 0.00053763 | 0.00053763 | 0.00053763 |   0.0 | 12.67
Bond    | 0.00033236 | 0.00033236 | 0.00033236 |   0.0 |  7.83
Neigh   | 0          | 0          | 0          |   0.0 |  0.00
Comm    | 0.00057554 | 0.00057554 | 0.00057554 |   0.0 | 13.56
Output  | 0.0014026  | 0.0014026  | 0.0014026  |   0.0 | 33.05
Modify  | 0.00053835 | 0.00053835 | 0.00053835 |   0.0 | 12.69
Other   |            | 0.0008574  |            |       | 20.20

Nlocal:    2 ave 2 max 2 min
Histogram: 1 0 0 0 0 0 0 0 0 0
Nghost:    0 ave 0 max 0 min
Histogram: 1 0 0 0 0 0 0 0 0 0
Neighs:    1 ave 1 max 1 min
Histogram: 1 0 0 0 0 0 0 0 0 0

Total # of neighbors = 1
Ave neighs/atom = 0.5
Ave special neighs/atom = 0
Neighbor list builds = 0
Dangerous builds = 0
Displacing atoms ...
Neighbor list info ...
  update every 1 steps, delay 10 steps, check yes
  max neighbors/atom: 2000, page size: 100000
  master list distance cutoff = 3.8
  ghost atom cutoff = 3.8
  binsize = 1.9, bins = 22 22 22
  6 neighbor lists, perpetual/occasional/extra = 5 1 0
  (1) pair lj/expand/twopiece, perpetual, skip from (6)
      attributes: half, newton on
      pair build: skip
      stencil: none
      bin: none
  (2) pair soft/shift, perpetual, skip from (6)
      attributes: half, newton on
      pair build: skip
      stencil: none
      bin: none
  (3) pair zero, perpetual, skip from (6)
      attributes: half, newton on
      pair build: skip
      stencil: none
      bin: none
  (4) pair morse, perpetual, skip from (6)
      attributes: half, newton on
      pair build: skip
      stencil: none
      bin: none
  (5) compute pair/local, occasional, copy from (6)
      attributes: half, newton on
      pair build: copy
      stencil: none
      bin: none
  (6) neighbor class addition, perpetual
      attributes: half, newton on
      pair build: half/bin/newton
      stencil: half/bin/3d/newton
      bin: standard
Setting up Verlet run ...
  Unit style    : lj
  Current step  : 5000
  Time step     : 0.001
Per MPI rank memory allocation (min/avg/max) = 9.126 | 9.126 | 9.126 Mbytes
Step Temp E_pair E_mol TotEng Press 
    5000            0 -0.00066402458            0 -0.00066402458 -6.3323405e-08 
    5200            0 -0.00066402458            0 -0.00066402458 -6.3323405e-08 
    5400            0 -0.00066402458            0 -0.00066402458 -6.3323405e-08 
    5600            0 -0.00066402458            0 -0.00066402458 -6.3323405e-08 
    5800            0 -0.00066402458            0 -0.00066402458 -6.3323405e-08 
    6000            0 -0.00066402458            0 -0.00066402458 -6.3323405e-08 
Loop time of 0.00419188 on 1 procs for 1000 steps with 2 atoms

Performance: 20611299.374 tau/day, 238556.706 timesteps/s
0.0% CPU use with 1 MPI tasks x 1 OpenMP threads

MPI task timing breakdown:
Section |  min time  |  avg time  |  max time  |%varavg| %total
---------------------------------------------------------------
Pair    | 0.00055957 | 0.00055957 | 0.00055957 |   0.0 | 13.35
Bond    | 0.00031424 | 0.00031424 | 0.00031424 |   0.0 |  7.50
Neigh   | 0          | 0          | 0          |   0.0 |  0.00
Comm    | 0.00055671 | 0.00055671 | 0.00055671 |   0.0 | 13.28
Output  | 0.0013287  | 0.0013287  | 0.0013287  |   0.0 | 31.70
Modify  | 0.00056815 | 0.00056815 | 0.00056815 |   0.0 | 13.55
Other   |            | 0.0008645  |            |       | 20.62

Nlocal:    2 ave 2 max 2 min
Histogram: 1 0 0 0 0 0 0 0 0 0
Nghost:    0 ave 0 max 0 min
Histogram: 1 0 0 0 0 0 0 0 0 0
Neighs:    1 ave 1 max 1 min
Histogram: 1 0 0 0 0 0 0 0 0 0

Total # of neighbors = 1
Ave neighs/atom = 0.5
Ave special neighs/atom = 0
Neighbor list builds = 0
Dangerous builds = 0
Displacing atoms ...
Neighbor list info ...
  update every 1 steps, delay 10 steps, check yes
  max neighbors/atom: 2000, page size: 100000
  master list distance cutoff = 3.8
  ghost atom cutoff = 3.8
  binsize = 1.9, bins = 22 22 22
  6 neighbor lists, perpetual/occasional/extra = 5 1 0
  (1) pair lj/expand/twopiece, perpetual, skip from (6)
      attributes: half, newton on
      pair build: skip
      stencil: none
      bin: none
  (2) pair soft/shift, perpetual, skip from (6)
      attributes: half, newton on
      pair build: skip
      stencil: none
      bin: none
  (3) pair zero, perpetual, skip from (6)
      attributes: half, newton on
      pair build: skip
      stencil: none
      bin: none
  (4) pair morse, perpetual, skip from (6)
      attributes: half, newton on
      pair build: skip
      stencil: none
      bin: none
  (5) compute pair/local, occasional, copy from (6)
      attributes: half, newton on
      pair build: copy
      stencil: none
      bin: none
  (6) neighbor class addition, perpetual
      attributes: half, newton on
      pair build: half/bin/newton
      stencil: half/bin/3d/newton
      bin: standard
Setting up Verlet run ...
  Unit style    : lj
  Current step  : 6000
  Time step     : 0.001
Per MPI rank memory allocation (min/avg/max) = 9.126 | 9.126 | 9.126 Mbytes
Step Temp E_pair E_mol TotEng Press 
    6000            0 -0.00070753708            0 -0.00070753708 -6.771893e-08 
    6200            0 -0.00070753708            0 -0.00070753708 -6.771893e-08 
    6400            0 -0.00070753708            0 -0.00070753708 -6.771893e-08 
    6600            0 -0.00070753708            0 -0.00070753708 -6.771893e-08 
    6800            0 -0.00070753708            0 -0.00070753708 -6.771893e-08 
    7000            0 -0.00070753708            0 -0.00070753708 -6.771893e-08 
Loop time of 0.00468087 on 1 procs for 1000 steps with 2 atoms

Performance: 18458099.404 tau/day, 213635.410 timesteps/s
0.0% CPU use with 1 MPI tasks x 1 OpenMP threads

MPI task timing breakdown:
Section |  min time  |  avg time  |  max time  |%varavg| %total
---------------------------------------------------------------
Pair    | 0.00062299 | 0.00062299 | 0.00062299 |   0.0 | 13.31
Bond    | 0.00034285 | 0.00034285 | 0.00034285 |   0.0 |  7.32
Neigh   | 0          | 0          | 0          |   0.0 |  0.00
Comm    | 0.00056458 | 0.00056458 | 0.00056458 |   0.0 | 12.06
Output  | 0.0016341  | 0.0016341  | 0.0016341  |   0.0 | 34.91
Modify  | 0.00057077 | 0.00057077 | 0.00057077 |   0.0 | 12.19
Other   |            | 0.0009456  |            |       | 20.20

Nlocal:    2 ave 2 max 2 min
Histogram: 1 0 0 0 0 0 0 0 0 0
Nghost:    0 ave 0 max 0 min
Histogram: 1 0 0 0 0 0 0 0 0 0
Neighs:    1 ave 1 max 1 min
Histogram: 1 0 0 0 0 0 0 0 0 0

Total # of neighbors = 1
Ave neighs/atom = 0.5
Ave special neighs/atom = 0
Neighbor list builds = 0
Dangerous builds = 0
Displacing atoms ...
Neighbor list info ...
  update every 1 steps, delay 10 steps, check yes
  max neighbors/atom: 2000, page size: 100000
  master list distance cutoff = 3.8
  ghost atom cutoff = 3.8
  binsize = 1.9, bins = 22 22 22
  6 neighbor lists, perpetual/occasional/extra = 5 1 0
  (1) pair lj/expand/twopiece, perpetual, skip from (6)
      attributes: half, newton on
      pair build: skip
      stencil: none
      bin: none
  (2) pair soft/shift, perpetual, skip from (6)
      attributes: half, newton on
      pair build: skip
      stencil: none
      bin: none
  (3) pair zero, perpetual, skip from (6)
      attributes: half, newton on
      pair build: skip
      stencil: none
      bin: none
  (4) pair morse, perpetual, skip from (6)
      attributes: half, newton on
      pair build: skip
      stencil: none
      bin: none
  (5) compute pair/local, occasional, copy from (6)
      attributes: half, newton on
      pair build: copy
      stencil: none
      bin: none
  (6) neighbor class addition, perpetual
      attributes: half, newton on
      pair build: half/bin/newton
      stencil: half/bin/3d/newton
      bin: standard
Setting up Verlet run ...
  Unit style    : lj
  Current step  : 7000
  Time step     : 0.001
Per MPI rank memory allocation (min/avg/max) = 9.126 | 9.126 | 9.126 Mbytes
Step Temp E_pair E_mol TotEng Press 
    7000            0 -0.00075441175            0 -0.00075441175 -7.2473223e-08 
    7200            0 -0.00075441175            0 -0.00075441175 -7.2473223e-08 
    7400            0 -0.00075441175            0 -0.00075441175 -7.2473223e-08 
    7600            0 -0.00075441175            0 -0.00075441175 -7.2473223e-08 
    7800            0 -0.00075441175            0 -0.00075441175 -7.2473223e-08 
    8000            0 -0.00075441175            0 -0.00075441175 -7.2473223e-08 
Loop time of 0.00391603 on 1 procs for 1000 steps with 2 atoms

Performance: 22063188.164 tau/day, 255360.974 timesteps/s
399.0% CPU use with 1 MPI tasks x 1 OpenMP threads

MPI task timing breakdown:
Section |  min time  |  avg time  |  max time  |%varavg| %total
---------------------------------------------------------------
Pair    | 0.0004859  | 0.0004859  | 0.0004859  |   0.0 | 12.41
Bond    | 0.00030327 | 0.00030327 | 0.00030327 |   0.0 |  7.74
Neigh   | 0          | 0          | 0          |   0.0 |  0.00
Comm    | 0.00051713 | 0.00051713 | 0.00051713 |   0.0 | 13.21
Output  | 0.0012248  | 0.0012248  | 0.0012248  |   0.0 | 31.28
Modify  | 0.00053954 | 0.00053954 | 0.00053954 |   0.0 | 13.78
Other   |            | 0.0008454  |            |       | 21.59

Nlocal:    2 ave 2 max 2 min
Histogram: 1 0 0 0 0 0 0 0 0 0
Nghost:    0 ave 0 max 0 min
Histogram: 1 0 0 0 0 0 0 0 0 0
Neighs:    1 ave 1 max 1 min
Histogram: 1 0 0 0 0 0 0 0 0 0

Total # of neighbors = 1
Ave neighs/atom = 0.5
Ave special neighs/atom = 0
Neighbor list builds = 0
Dangerous builds = 0
Displacing atoms ...
Neighbor list info ...
  update every 1 steps, delay 10 steps, check yes
  max neighbors/atom: 2000, page size: 100000
  master list distance cutoff = 3.8
  ghost atom cutoff = 3.8
  binsize = 1.9, bins = 22 22 22
  6 neighbor lists, perpetual/occasional/extra = 5 1 0
  (1) pair lj/expand/twopiece, perpetual, skip from (6)
      attributes: half, newton on
      pair build: skip
      stencil: none
      bin: none
  (2) pair soft/shift, perpetual, skip from (6)
      attributes: half, newton on
      pair build: skip
      stencil: none
      bin: none
  (3) pair zero, perpetual, skip from (6)
      attributes: half, newton on
      pair build: skip
      stencil: none
      bin: none
  (4) pair morse, perpetual, skip from (6)
      attributes: half, newton on
      pair build: skip
      stencil: none
      bin: none
  (5) compute pair/local, occasional, copy from (6)
      attributes: half, newton on
      pair build: copy
      stencil: none
      bin: none
  (6) neighbor class addition, perpetual
      attributes: half, newton on
      pair build: half/bin/newton
      stencil: half/bin/3d/newton
      bin: standard
Setting up Verlet run ...
  Unit style    : lj
  Current step  : 8000
  Time step     : 0.001
Per MPI rank memory allocation (min/avg/max) = 9.126 | 9.126 | 9.126 Mbytes
Step Temp E_pair E_mol TotEng Press 
    8000            0 -0.00080494867            0 -0.00080494867 -7.762002e-08 
    8200            0 -0.00080494867            0 -0.00080494867 -7.762002e-08 
    8400            0 -0.00080494867            0 -0.00080494867 -7.762002e-08 
    8600            0 -0.00080494867            0 -0.00080494867 -7.762002e-08 
    8800            0 -0.00080494867            0 -0.00080494867 -7.762002e-08 
    9000            0 -0.00080494867            0 -0.00080494867 -7.762002e-08 
Loop time of 0.00385094 on 1 procs for 1000 steps with 2 atoms

Performance: 22436098.663 tau/day, 259677.068 timesteps/s
0.0% CPU use with 1 MPI tasks x 1 OpenMP threads

MPI task timing breakdown:
Section |  min time  |  avg time  |  max time  |%varavg| %total
---------------------------------------------------------------
Pair    | 0.00047183 | 0.00047183 | 0.00047183 |   0.0 | 12.25
Bond    | 0.00031853 | 0.00031853 | 0.00031853 |   0.0 |  8.27
Neigh   | 0          | 0          | 0          |   0.0 |  0.00
Comm    | 0.00053549 | 0.00053549 | 0.00053549 |   0.0 | 13.91
Output  | 0.0011835  | 0.0011835  | 0.0011835  |   0.0 | 30.73
Modify  | 0.00051785 | 0.00051785 | 0.00051785 |   0.0 | 13.45
Other   |            | 0.0008237  |            |       | 21.39

Nlocal:    2 ave 2 max 2 min
Histogram: 1 0 0 0 0 0 0 0 0 0
Nghost:    0 ave 0 max 0 min
Histogram: 1 0 0 0 0 0 0 0 0 0
Neighs:    1 ave 1 max 1 min
Histogram: 1 0 0 0 0 0 0 0 0 0

Total # of neighbors = 1
Ave neighs/atom = 0.5
Ave special neighs/atom = 0
Neighbor list builds = 0
Dangerous builds = 0
Displacing atoms ...
Neighbor list info ...
  update every 1 steps, delay 10 steps, check yes
  max neighbors/atom: 2000, page size: 100000
  master list distance cutoff = 3.8
  ghost atom cutoff = 3.8
  binsize = 1.9, bins = 22 22 22
  6 neighbor lists, perpetual/occasional/extra = 5 1 0
  (1) pair lj/expand/twopiece, perpetual, skip from (6)
      attributes: half, newton on
      pair build: skip
      stencil: none
      bin: none
  (2) pair soft/shift, perpetual, skip from (6)
      attributes: half, newton on
      pair build: skip
      stencil: none
      bin: none
  (3) pair zero, perpetual, skip from (6)
      attributes: half, newton on
      pair build: skip
      stencil: none
      bin: none
  (4) pair morse, perpetual, skip from (6)
      attributes: half, newton on
      pair build: skip
      stencil: none
      bin: none
  (5) compute pair/local, occasional, copy from (6)
      attributes: half, newton on
      pair build: copy
      stencil: none
      bin: none
  (6) neighbor class addition, perpetual
      attributes: half, newton on
      pair build: half/bin/newton
      stencil: half/bin/3d/newton
      bin: standard
Setting up Verlet run ...
  Unit style    : lj
  Current step  : 9000
  Time step     : 0.001
Per MPI rank memory allocation (min/avg/max) = 9.126 | 9.126 | 9.126 Mbytes
Step Temp E_pair E_mol TotEng Press 
    9000            0 -0.00085947835            0 -0.00085947835 -8.3196651e-08 
    9200            0 -0.00085947835            0 -0.00085947835 -8.3196651e-08 
    9400            0 -0.00085947835            0 -0.00085947835 -8.3196651e-08 
    9600            0 -0.00085947835            0 -0.00085947835 -8.3196651e-08 
    9800            0 -0.00085947835            0 -0.00085947835 -8.3196651e-08 
   10000            0 -0.00085947835            0 -0.00085947835 -8.3196651e-08 
Loop time of 0.00390291 on 1 procs for 1000 steps with 2 atoms

Performance: 22137316.164 tau/day, 256218.937 timesteps/s
0.0% CPU use with 1 MPI tasks x 1 OpenMP threads

MPI task timing breakdown:
Section |  min time  |  avg time  |  max time  |%varavg| %total
---------------------------------------------------------------
Pair    | 0.00047922 | 0.00047922 | 0.00047922 |   0.0 | 12.28
Bond    | 0.00029325 | 0.00029325 | 0.00029325 |   0.0 |  7.51
Neigh   | 0          | 0          | 0          |   0.0 |  0.00
Comm    | 0.00052595 | 0.00052595 | 0.00052595 |   0.0 | 13.48
Output  | 0.0012245  | 0.0012245  | 0.0012245  |   0.0 | 31.37
Modify  | 0.00052929 | 0.00052929 | 0.00052929 |   0.0 | 13.56
Other   |            | 0.0008507  |            |       | 21.80

Nlocal:    2 ave 2 max 2 min
Histogram: 1 0 0 0 0 0 0 0 0 0
Nghost:    0 ave 0 max 0 min
Histogram: 1 0 0 0 0 0 0 0 0 0
Neighs:    1 ave 1 max 1 min
Histogram: 1 0 0 0 0 0 0 0 0 0

Total # of neighbors = 1
Ave neighs/atom = 0.5
Ave special neighs/atom = 0
Neighbor list builds = 0
Dangerous builds = 0
Displacing atoms ...
Neighbor list info ...
  update every 1 steps, delay 10 steps, check yes
  max neighbors/atom: 2000, page size: 100000
  master list distance cutoff = 3.8
  ghost atom cutoff = 3.8
  binsize = 1.9, bins = 22 22 22
  6 neighbor lists, perpetual/occasional/extra = 5 1 0
  (1) pair lj/expand/twopiece, perpetual, skip from (6)
      attributes: half, newton on
      pair build: skip
      stencil: none
      bin: none
  (2) pair soft/shift, perpetual, skip from (6)
      attributes: half, newton on
      pair build: skip
      stencil: none
      bin: none
  (3) pair zero, perpetual, skip from (6)
      attributes: half, newton on
      pair build: skip
      stencil: none
      bin: none
  (4) pair morse, perpetual, skip from (6)
      attributes: half, newton on
      pair build: skip
      stencil: none
      bin: none
  (5) compute pair/local, occasional, copy from (6)
      attributes: half, newton on
      pair build: copy
      stencil: none
      bin: none
  (6) neighbor class addition, perpetual
      attributes: half, newton on
      pair build: half/bin/newton
      stencil: half/bin/3d/newton
      bin: standard
Setting up Verlet run ...
  Unit style    : lj
  Current step  : 10000
  Time step     : 0.001
Per MPI rank memory allocation (min/avg/max) = 9.126 | 9.126 | 9.126 Mbytes
Step Temp E_pair E_mol TotEng Press 
   10000            0 -0.00091836523            0 -0.00091836523 -8.9244473e-08 
   10200            0 -0.00091836523            0 -0.00091836523 -8.9244473e-08 
   10400            0 -0.00091836523            0 -0.00091836523 -8.9244473e-08 
   10600            0 -0.00091836523            0 -0.00091836523 -8.9244473e-08 
   10800            0 -0.00091836523            0 -0.00091836523 -8.9244473e-08 
   11000            0 -0.00091836523            0 -0.00091836523 -8.9244473e-08 
Loop time of 0.00400901 on 1 procs for 1000 steps with 2 atoms

Performance: 21551463.907 tau/day, 249438.240 timesteps/s
0.0% CPU use with 1 MPI tasks x 1 OpenMP threads

MPI task timing breakdown:
Section |  min time  |  avg time  |  max time  |%varavg| %total
---------------------------------------------------------------
Pair    | 0.00051641 | 0.00051641 | 0.00051641 |   0.0 | 12.88
Bond    | 0.00031042 | 0.00031042 | 0.00031042 |   0.0 |  7.74
Neigh   | 0          | 0          | 0          |   0.0 |  0.00
Comm    | 0.00052571 | 0.00052571 | 0.00052571 |   0.0 | 13.11
Output  | 0.0012786  | 0.0012786  | 0.0012786  |   0.0 | 31.89
Modify  | 0.00053525 | 0.00053525 | 0.00053525 |   0.0 | 13.35
Other   |            | 0.0008426  |            |       | 21.02

Nlocal:    2 ave 2 max 2 min
Histogram: 1 0 0 0 0 0 0 0 0 0
Nghost:    0 ave 0 max 0 min
Histogram: 1 0 0 0 0 0 0 0 0 0
Neighs:    1 ave 1 max 1 min
Histogram: 1 0 0 0 0 0 0 0 0 0

Total # of neighbors = 1
Ave neighs/atom = 0.5
Ave special neighs/atom = 0
Neighbor list builds = 0
Dangerous builds = 0
Displacing atoms ...
Neighbor list info ...
  update every 1 steps, delay 10 steps, check yes
  max neighbors/atom: 2000, page size: 100000
  master list distance cutoff = 3.8
  ghost atom cutoff = 3.8
  binsize = 1.9, bins = 22 22 22
  6 neighbor lists, perpetual/occasional/extra = 5 1 0
  (1) pair lj/expand/twopiece, perpetual, skip from (6)
      attributes: half, newton on
      pair build: skip
      stencil: none
      bin: none
  (2) pair soft/shift, perpetual, skip from (6)
      attributes: half, newton on
      pair build: skip
      stencil: none
      bin: none
  (3) pair zero, perpetual, skip from (6)
      attributes: half, newton on
      pair build: skip
      stencil: none
      bin: none
  (4) pair morse, perpetual, skip from (6)
      attributes: half, newton on
      pair build: skip
      stencil: none
      bin: none
  (5) compute pair/local, occasional, copy from (6)
      attributes: half, newton on
      pair build: copy
      stencil: none
      bin: none
  (6) neighbor class addition, perpetual
      attributes: half, newton on
      pair build: half/bin/newton
      stencil: half/bin/3d/newton
      bin: standard
Setting up Verlet run ...
  Unit style    : lj
  Current step  : 11000
  Time step     : 0.001
Per MPI rank memory allocation (min/avg/max) = 9.126 | 9.126 | 9.126 Mbytes
Step Temp E_pair E_mol TotEng Press 
   11000            0 -0.00098201158            0 -0.00098201158 -9.5809355e-08 
   11200            0 -0.00098201158            0 -0.00098201158 -9.5809355e-08 
   11400            0 -0.00098201158            0 -0.00098201158 -9.5809355e-08 
   11600            0 -0.00098201158            0 -0.00098201158 -9.5809355e-08 
   11800            0 -0.00098201158            0 -0.00098201158 -9.5809355e-08 
   12000            0 -0.00098201158            0 -0.00098201158 -9.5809355e-08 
Loop time of 0.00388908 on 1 procs for 1000 steps with 2 atoms

Performance: 22216029.034 tau/day, 257129.966 timesteps/s
0.0% CPU use with 1 MPI tasks x 1 OpenMP threads

MPI task timing breakdown:
Section |  min time  |  avg time  |  max time  |%varavg| %total
---------------------------------------------------------------
Pair    | 0.00049043 | 0.00049043 | 0.00049043 |   0.0 | 12.61
Bond    | 0.00029325 | 0.00029325 | 0.00029325 |   0.0 |  7.54
Neigh   | 0          | 0          | 0          |   0.0 |  0.00
Comm    | 0.0005424  | 0.0005424  | 0.0005424  |   0.0 | 13.95
Output  | 0.0012369  | 0.0012369  | 0.0012369  |   0.0 | 31.80
Modify  | 0.00052619 | 0.00052619 | 0.00052619 |   0.0 | 13.53
Other   |            | 0.0007999  |            |       | 20.57

Nlocal:    2 ave 2 max 2 min
Histogram: 1 0 0 0 0 0 0 0 0 0
Nghost:    0 ave 0 max 0 min
Histogram: 1 0 0 0 0 0 0 0 0 0
Neighs:    1 ave 1 max 1 min
Histogram: 1 0 0 0 0 0 0 0 0 0

Total # of neighbors = 1
Ave neighs/atom = 0.5
Ave special neighs/atom = 0
Neighbor list builds = 0
Dangerous builds = 0
Displacing atoms ...
Neighbor list info ...
  update every 1 steps, delay 10 steps, check yes
  max neighbors/atom: 2000, page size: 100000
  master list distance cutoff = 3.8
  ghost atom cutoff = 3.8
  binsize = 1.9, bins = 22 22 22
  6 neighbor lists, perpetual/occasional/extra = 5 1 0
  (1) pair lj/expand/twopiece, perpetual, skip from (6)
      attributes: half, newton on
      pair build: skip
      stencil: none
      bin: none
  (2) pair soft/shift, perpetual, skip from (6)
      attributes: half, newton on
      pair build: skip
      stencil: none
      bin: none
  (3) pair zero, perpetual, skip from (6)
      attributes: half, newton on
      pair build: skip
      stencil: none
      bin: none
  (4) pair morse, perpetual, skip from (6)
      attributes: half, newton on
      pair build: skip
      stencil: none
      bin: none
  (5) compute pair/local, occasional, copy from (6)
      attributes: half, newton on
      pair build: copy
      stencil: none
      bin: none
  (6) neighbor class addition, perpetual
      attributes: half, newton on
      pair build: half/bin/newton
      stencil: half/bin/3d/newton
      bin: standard
Setting up Verlet run ...
  Unit style    : lj
  Current step  : 12000
  Time step     : 0.001
Per MPI rank memory allocation (min/avg/max) = 9.126 | 9.126 | 9.126 Mbytes
Step Temp E_pair E_mol TotEng Press 
   12000            0 -0.0010508619            0 -0.0010508619 -1.0294223e-07 
   12200            0 -0.0010508619            0 -0.0010508619 -1.0294223e-07 
   12400            0 -0.0010508619            0 -0.0010508619 -1.0294223e-07 
   12600            0 -0.0010508619            0 -0.0010508619 -1.0294223e-07 
   12800            0 -0.0010508619            0 -0.0010508619 -1.0294223e-07 
   13000            0 -0.0010508619            0 -0.0010508619 -1.0294223e-07 
Loop time of 0.00384498 on 1 procs for 1000 steps with 2 atoms

Performance: 22470878.998 tau/day, 260079.618 timesteps/s
0.0% CPU use with 1 MPI tasks x 1 OpenMP threads

MPI task timing breakdown:
Section |  min time  |  avg time  |  max time  |%varavg| %total
---------------------------------------------------------------
Pair    | 0.0004735  | 0.0004735  | 0.0004735  |   0.0 | 12.31
Bond    | 0.00030708 | 0.00030708 | 0.00030708 |   0.0 |  7.99
Neigh   | 0          | 0          | 0          |   0.0 |  0.00
Comm    | 0.00053215 | 0.00053215 | 0.00053215 |   0.0 | 13.84
Output  | 0.0011573  | 0.0011573  | 0.0011573  |   0.0 | 30.10
Modify  | 0.00054717 | 0.00054717 | 0.00054717 |   0.0 | 14.23
Other   |            | 0.0008278  |            |       | 21.53

Nlocal:    2 ave 2 max 2 min
Histogram: 1 0 0 0 0 0 0 0 0 0
Nghost:    0 ave 0 max 0 min
Histogram: 1 0 0 0 0 0 0 0 0 0
Neighs:    1 ave 1 max 1 min
Histogram: 1 0 0 0 0 0 0 0 0 0

Total # of neighbors = 1
Ave neighs/atom = 0.5
Ave special neighs/atom = 0
Neighbor list builds = 0
Dangerous builds = 0
Displacing atoms ...
Neighbor list info ...
  update every 1 steps, delay 10 steps, check yes
  max neighbors/atom: 2000, page size: 100000
  master list distance cutoff = 3.8
  ghost atom cutoff = 3.8
  binsize = 1.9, bins = 22 22 22
  6 neighbor lists, perpetual/occasional/extra = 5 1 0
  (1) pair lj/expand/twopiece, perpetual, skip from (6)
      attributes: half, newton on
      pair build: skip
      stencil: none
      bin: none
  (2) pair soft/shift, perpetual, skip from (6)
      attributes: half, newton on
      pair build: skip
      stencil: none
      bin: none
  (3) pair zero, perpetual, skip from (6)
      attributes: half, newton on
      pair build: skip
      stencil: none
      bin: none
  (4) pair morse, perpetual, skip from (6)
      attributes: half, newton on
      pair build: skip
      stencil: none
      bin: none
  (5) compute pair/local, occasional, copy from (6)
      attributes: half, newton on
      pair build: copy
      stencil: none
      bin: none
  (6) neighbor class addition, perpetual
      attributes: half, newton on
      pair build: half/bin/newton
      stencil: half/bin/3d/newton
      bin: standard
Setting up Verlet run ...
  Unit style    : lj
  Current step  : 13000
  Time step     : 0.001
Per MPI rank memory allocation (min/avg/max) = 9.126 | 9.126 | 9.126 Mbytes
Step Temp E_pair E_mol TotEng Press 
   13000            0 -0.0011254079            0 -0.0011254079 -1.1069973e-07 
   13200            0 -0.0011254079            0 -0.0011254079 -1.1069973e-07 
   13400            0 -0.0011254079            0 -0.0011254079 -1.1069973e-07 
   13600            0 -0.0011254079            0 -0.0011254079 -1.1069973e-07 
   13800            0 -0.0011254079            0 -0.0011254079 -1.1069973e-07 
   14000            0 -0.0011254079            0 -0.0011254079 -1.1069973e-07 
Loop time of 0.00398207 on 1 procs for 1000 steps with 2 atoms

Performance: 21697273.716 tau/day, 251125.853 timesteps/s
0.0% CPU use with 1 MPI tasks x 1 OpenMP threads

MPI task timing breakdown:
Section |  min time  |  avg time  |  max time  |%varavg| %total
---------------------------------------------------------------
Pair    | 0.00048399 | 0.00048399 | 0.00048399 |   0.0 | 12.15
Bond    | 0.00031519 | 0.00031519 | 0.00031519 |   0.0 |  7.92
Neigh   | 0          | 0          | 0          |   0.0 |  0.00
Comm    | 0.00054049 | 0.00054049 | 0.00054049 |   0.0 | 13.57
Output  | 0.0012639  | 0.0012639  | 0.0012639  |   0.0 | 31.74
Modify  | 0.00052619 | 0.00052619 | 0.00052619 |   0.0 | 13.21
Other   |            | 0.0008523  |            |       | 21.40

Nlocal:    2 ave 2 max 2 min
Histogram: 1 0 0 0 0 0 0 0 0 0
Nghost:    0 ave 0 max 0 min
Histogram: 1 0 0 0 0 0 0 0 0 0
Neighs:    1 ave 1 max 1 min
Histogram: 1 0 0 0 0 0 0 0 0 0

Total # of neighbors = 1
Ave neighs/atom = 0.5
Ave special neighs/atom = 0
Neighbor list builds = 0
Dangerous builds = 0
Displacing atoms ...
Neighbor list info ...
  update every 1 steps, delay 10 steps, check yes
  max neighbors/atom: 2000, page size: 100000
  master list distance cutoff = 3.8
  ghost atom cutoff = 3.8
  binsize = 1.9, bins = 22 22 22
  6 neighbor lists, perpetual/occasional/extra = 5 1 0
  (1) pair lj/expand/twopiece, perpetual, skip from (6)
      attributes: half, newton on
      pair build: skip
      stencil: none
      bin: none
  (2) pair soft/shift, perpetual, skip from (6)
      attributes: half, newton on
      pair build: skip
      stencil: none
      bin: none
  (3) pair zero, perpetual, skip from (6)
      attributes: half, newton on
      pair build: skip
      stencil: none
      bin: none
  (4) pair morse, perpetual, skip from (6)
      attributes: half, newton on
      pair build: skip
      stencil: none
      bin: none
  (5) compute pair/local, occasional, copy from (6)
      attributes: half, newton on
      pair build: copy
      stencil: none
      bin: none
  (6) neighbor class addition, perpetual
      attributes: half, newton on
      pair build: half/bin/newton
      stencil: half/bin/3d/newton
      bin: standard
Setting up Verlet run ...
  Unit style    : lj
  Current step  : 14000
  Time step     : 0.001
Per MPI rank memory allocation (min/avg/max) = 9.126 | 9.126 | 9.126 Mbytes
Step Temp E_pair E_mol TotEng Press 
   14000            0 -0.001206194            0 -0.001206194 -1.1914487e-07 
   14200            0 -0.001206194            0 -0.001206194 -1.1914487e-07 
   14400            0 -0.001206194            0 -0.001206194 -1.1914487e-07 
   14600            0 -0.001206194            0 -0.001206194 -1.1914487e-07 
   14800            0 -0.001206194            0 -0.001206194 -1.1914487e-07 
   15000            0 -0.001206194            0 -0.001206194 -1.1914487e-07 
Loop time of 0.00410008 on 1 procs for 1000 steps with 2 atoms

Performance: 21072737.431 tau/day, 243897.424 timesteps/s
0.0% CPU use with 1 MPI tasks x 1 OpenMP threads

MPI task timing breakdown:
Section |  min time  |  avg time  |  max time  |%varavg| %total
---------------------------------------------------------------
Pair    | 0.00053692 | 0.00053692 | 0.00053692 |   0.0 | 13.10
Bond    | 0.00030613 | 0.00030613 | 0.00030613 |   0.0 |  7.47
Neigh   | 0          | 0          | 0          |   0.0 |  0.00
Comm    | 0.0005424  | 0.0005424  | 0.0005424  |   0.0 | 13.23
Output  | 0.0013447  | 0.0013447  | 0.0013447  |   0.0 | 32.80
Modify  | 0.00053453 | 0.00053453 | 0.00053453 |   0.0 | 13.04
Other   |            | 0.0008354  |            |       | 20.38

Nlocal:    2 ave 2 max 2 min
Histogram: 1 0 0 0 0 0 0 0 0 0
Nghost:    0 ave 0 max 0 min
Histogram: 1 0 0 0 0 0 0 0 0 0
Neighs:    1 ave 1 max 1 min
Histogram: 1 0 0 0 0 0 0 0 0 0

Total # of neighbors = 1
Ave neighs/atom = 0.5
Ave special neighs/atom = 0
Neighbor list builds = 0
Dangerous builds = 0
Displacing atoms ...
Neighbor list info ...
  update every 1 steps, delay 10 steps, check yes
  max neighbors/atom: 2000, page size: 100000
  master list distance cutoff = 3.8
  ghost atom cutoff = 3.8
  binsize = 1.9, bins = 22 22 22
  6 neighbor lists, perpetual/occasional/extra = 5 1 0
  (1) pair lj/expand/twopiece, perpetual, skip from (6)
      attributes: half, newton on
      pair build: skip
      stencil: none
      bin: none
  (2) pair soft/shift, perpetual, skip from (6)
      attributes: half, newton on
      pair build: skip
      stencil: none
      bin: none
  (3) pair zero, perpetual, skip from (6)
      attributes: half, newton on
      pair build: skip
      stencil: none
      bin: none
  (4) pair morse, perpetual, skip from (6)
      attributes: half, newton on
      pair build: skip
      stencil: none
      bin: none
  (5) compute pair/local, occasional, copy from (6)
      attributes: half, newton on
      pair build: copy
      stencil: none
      bin: none
  (6) neighbor class addition, perpetual
      attributes: half, newton on
      pair build: half/bin/newton
      stencil: half/bin/3d/newton
      bin: standard
Setting up Verlet run ...
  Unit style    : lj
  Current step  : 15000
  Time step     : 0.001
Per MPI rank memory allocation (min/avg/max) = 9.126 | 9.126 | 9.126 Mbytes
Step Temp E_pair E_mol TotEng Press 
   15000            0 -0.0012938242            0 -0.0012938242 -1.2834789e-07 
   15200            0 -0.0012938242            0 -0.0012938242 -1.2834789e-07 
   15400            0 -0.0012938242            0 -0.0012938242 -1.2834789e-07 
   15600            0 -0.0012938242            0 -0.0012938242 -1.2834789e-07 
   15800            0 -0.0012938242            0 -0.0012938242 -1.2834789e-07 
   16000            0 -0.0012938242            0 -0.0012938242 -1.2834789e-07 
Loop time of 0.00418806 on 1 procs for 1000 steps with 2 atoms

Performance: 20630073.187 tau/day, 238773.995 timesteps/s
0.0% CPU use with 1 MPI tasks x 1 OpenMP threads

MPI task timing breakdown:
Section |  min time  |  avg time  |  max time  |%varavg| %total
---------------------------------------------------------------
Pair    | 0.00052142 | 0.00052142 | 0.00052142 |   0.0 | 12.45
Bond    | 0.00032878 | 0.00032878 | 0.00032878 |   0.0 |  7.85
Neigh   | 0          | 0          | 0          |   0.0 |  0.00
Comm    | 0.00054169 | 0.00054169 | 0.00054169 |   0.0 | 12.93
Output  | 0.0013638  | 0.0013638  | 0.0013638  |   0.0 | 32.56
Modify  | 0.00053978 | 0.00053978 | 0.00053978 |   0.0 | 12.89
Other   |            | 0.0008926  |            |       | 21.31

Nlocal:    2 ave 2 max 2 min
Histogram: 1 0 0 0 0 0 0 0 0 0
Nghost:    0 ave 0 max 0 min
Histogram: 1 0 0 0 0 0 0 0 0 0
Neighs:    1 ave 1 max 1 min
Histogram: 1 0 0 0 0 0 0 0 0 0

Total # of neighbors = 1
Ave neighs/atom = 0.5
Ave special neighs/atom = 0
Neighbor list builds = 0
Dangerous builds = 0
Displacing atoms ...
Neighbor list info ...
  update every 1 steps, delay 10 steps, check yes
  max neighbors/atom: 2000, page size: 100000
  master list distance cutoff = 3.8
  ghost atom cutoff = 3.8
  binsize = 1.9, bins = 22 22 22
  6 neighbor lists, perpetual/occasional/extra = 5 1 0
  (1) pair lj/expand/twopiece, perpetual, skip from (6)
      attributes: half, newton on
      pair build: skip
      stencil: none
      bin: none
  (2) pair soft/shift, perpetual, skip from (6)
      attributes: half, newton on
      pair build: skip
      stencil: none
      bin: none
  (3) pair zero, perpetual, skip from (6)
      attributes: half, newton on
      pair build: skip
      stencil: none
      bin: none
  (4) pair morse, perpetual, skip from (6)
      attributes: half, newton on
      pair build: skip
      stencil: none
      bin: none
  (5) compute pair/local, occasional, copy from (6)
      attributes: half, newton on
      pair build: copy
      stencil: none
      bin: none
  (6) neighbor class addition, perpetual
      attributes: half, newton on
      pair build: half/bin/newton
      stencil: half/bin/3d/newton
      bin: standard
Setting up Verlet run ...
  Unit style    : lj
  Current step  : 16000
  Time step     : 0.001
Per MPI rank memory allocation (min/avg/max) = 9.126 | 9.126 | 9.126 Mbytes
Step Temp E_pair E_mol TotEng Press 
   16000            0 -0.0013889685            0 -0.0013889685 -1.3838716e-07 
   16200            0 -0.0013889685            0 -0.0013889685 -1.3838716e-07 
   16400            0 -0.0013889685            0 -0.0013889685 -1.3838716e-07 
   16600            0 -0.0013889685            0 -0.0013889685 -1.3838716e-07 
   16800            0 -0.0013889685            0 -0.0013889685 -1.3838716e-07 
   17000            0 -0.0013889685            0 -0.0013889685 -1.3838716e-07 
Loop time of 0.00406098 on 1 procs for 1000 steps with 2 atoms

Performance: 21275633.511 tau/day, 246245.758 timesteps/s
0.0% CPU use with 1 MPI tasks x 1 OpenMP threads

MPI task timing breakdown:
Section |  min time  |  avg time  |  max time  |%varavg| %total
---------------------------------------------------------------
Pair    | 0.00053549 | 0.00053549 | 0.00053549 |   0.0 | 13.19
Bond    | 0.0003109  | 0.0003109  | 0.0003109  |   0.0 |  7.66
Neigh   | 0          | 0          | 0          |   0.0 |  0.00
Comm    | 0.00054455 | 0.00054455 | 0.00054455 |   0.0 | 13.41
Output  | 0.0012808  | 0.0012808  | 0.0012808  |   0.0 | 31.54
Modify  | 0.0005424  | 0.0005424  | 0.0005424  |   0.0 | 13.36
Other   |            | 0.0008469  |            |       | 20.85

Nlocal:    2 ave 2 max 2 min
Histogram: 1 0 0 0 0 0 0 0 0 0
Nghost:    0 ave 0 max 0 min
Histogram: 1 0 0 0 0 0 0 0 0 0
Neighs:    1 ave 1 max 1 min
Histogram: 1 0 0 0 0 0 0 0 0 0

Total # of neighbors = 1
Ave neighs/atom = 0.5
Ave special neighs/atom = 0
Neighbor list builds = 0
Dangerous builds = 0
Displacing atoms ...
Neighbor list info ...
  update every 1 steps, delay 10 steps, check yes
  max neighbors/atom: 2000, page size: 100000
  master list distance cutoff = 3.8
  ghost atom cutoff = 3.8
  binsize = 1.9, bins = 22 22 22
  6 neighbor lists, perpetual/occasional/extra = 5 1 0
  (1) pair lj/expand/twopiece, perpetual, skip from (6)
      attributes: half, newton on
      pair build: skip
      stencil: none
      bin: none
  (2) pair soft/shift, perpetual, skip from (6)
      attributes: half, newton on
      pair build: skip
      stencil: none
      bin: none
  (3) pair zero, perpetual, skip from (6)
      attributes: half, newton on
      pair build: skip
      stencil: none
      bin: none
  (4) pair morse, perpetual, skip from (6)
      attributes: half, newton on
      pair build: skip
      stencil: none
      bin: none
  (5) compute pair/local, occasional, copy from (6)
      attributes: half, newton on
      pair build: copy
      stencil: none
      bin: none
  (6) neighbor class addition, perpetual
      attributes: half, newton on
      pair build: half/bin/newton
      stencil: half/bin/3d/newton
      bin: standard
Setting up Verlet run ...
  Unit style    : lj
  Current step  : 17000
  Time step     : 0.001
Per MPI rank memory allocation (min/avg/max) = 9.126 | 9.126 | 9.126 Mbytes
Step Temp E_pair E_mol TotEng Press 
   17000            0 -0.0014923719            0 -0.0014923719 -1.4935025e-07 
   17200            0 -0.0014923719            0 -0.0014923719 -1.4935025e-07 
   17400            0 -0.0014923719            0 -0.0014923719 -1.4935025e-07 
   17600            0 -0.0014923719            0 -0.0014923719 -1.4935025e-07 
   17800            0 -0.0014923719            0 -0.0014923719 -1.4935025e-07 
   18000            0 -0.0014923719            0 -0.0014923719 -1.4935025e-07 
Loop time of 0.00440097 on 1 procs for 1000 steps with 2 atoms

Performance: 19632042.126 tau/day, 227222.710 timesteps/s
0.0% CPU use with 1 MPI tasks x 1 OpenMP threads

MPI task timing breakdown:
Section |  min time  |  avg time  |  max time  |%varavg| %total
---------------------------------------------------------------
Pair    | 0.00055933 | 0.00055933 | 0.00055933 |   0.0 | 12.71
Bond    | 0.00034165 | 0.00034165 | 0.00034165 |   0.0 |  7.76
Neigh   | 0          | 0          | 0          |   0.0 |  0.00
Comm    | 0.00057006 | 0.00057006 | 0.00057006 |   0.0 | 12.95
Output  | 0.0014899  | 0.0014899  | 0.0014899  |   0.0 | 33.85
Modify  | 0.0005455  | 0.0005455  | 0.0005455  |   0.0 | 12.40
Other   |            | 0.0008945  |            |       | 20.33

Nlocal:    2 ave 2 max 2 min
Histogram: 1 0 0 0 0 0 0 0 0 0
Nghost:    0 ave 0 max 0 min
Histogram: 1 0 0 0 0 0 0 0 0 0
Neighs:    1 ave 1 max 1 min
Histogram: 1 0 0 0 0 0 0 0 0 0

Total # of neighbors = 1
Ave neighs/atom = 0.5
Ave special neighs/atom = 0
Neighbor list builds = 0
Dangerous builds = 0
Displacing atoms ...
Neighbor list info ...
  update every 1 steps, delay 10 steps, check yes
  max neighbors/atom: 2000, page size: 100000
  master list distance cutoff = 3.8
  ghost atom cutoff = 3.8
  binsize = 1.9, bins = 22 22 22
  6 neighbor lists, perpetual/occasional/extra = 5 1 0
  (1) pair lj/expand/twopiece, perpetual, skip from (6)
      attributes: half, newton on
      pair build: skip
      stencil: none
      bin: none
  (2) pair soft/shift, perpetual, skip from (6)
      attributes: half, newton on
      pair build: skip
      stencil: none
      bin: none
  (3) pair zero, perpetual, skip from (6)
      attributes: half, newton on
      pair build: skip
      stencil: none
      bin: none
  (4) pair morse, perpetual, skip from (6)
      attributes: half, newton on
      pair build: skip
      stencil: none
      bin: none
  (5) compute pair/local, occasional, copy from (6)
      attributes: half, newton on
      pair build: copy
      stencil: none
      bin: none
  (6) neighbor class addition, perpetual
      attributes: half, newton on
      pair build: half/bin/newton
      stencil: half/bin/3d/newton
      bin: standard
Setting up Verlet run ...
  Unit style    : lj
  Current step  : 18000
  Time step     : 0.001
Per MPI rank memory allocation (min/avg/max) = 9.126 | 9.126 | 9.126 Mbytes
Step Temp E_pair E_mol TotEng Press 
   18000            0 -0.0016048632            0 -0.0016048632 -1.6133512e-07 
   18200            0 -0.0016048632            0 -0.0016048632 -1.6133512e-07 
   18400            0 -0.0016048632            0 -0.0016048632 -1.6133512e-07 
   18600            0 -0.0016048632            0 -0.0016048632 -1.6133512e-07 
   18800            0 -0.0016048632            0 -0.0016048632 -1.6133512e-07 
   19000            0 -0.0016048632            0 -0.0016048632 -1.6133512e-07 
Loop time of 0.00424623 on 1 procs for 1000 steps with 2 atoms

Performance: 20347437.709 tau/day, 235502.751 timesteps/s
0.0% CPU use with 1 MPI tasks x 1 OpenMP threads

MPI task timing breakdown:
Section |  min time  |  avg time  |  max time  |%varavg| %total
---------------------------------------------------------------
Pair    | 0.00052643 | 0.00052643 | 0.00052643 |   0.0 | 12.40
Bond    | 0.00032306 | 0.00032306 | 0.00032306 |   0.0 |  7.61
Neigh   | 0          | 0          | 0          |   0.0 |  0.00
Comm    | 0.00055599 | 0.00055599 | 0.00055599 |   0.0 | 13.09
Output  | 0.0013859  | 0.0013859  | 0.0013859  |   0.0 | 32.64
Modify  | 0.00056958 | 0.00056958 | 0.00056958 |   0.0 | 13.41
Other   |            | 0.0008852  |            |       | 20.85

Nlocal:    2 ave 2 max 2 min
Histogram: 1 0 0 0 0 0 0 0 0 0
Nghost:    0 ave 0 max 0 min
Histogram: 1 0 0 0 0 0 0 0 0 0
Neighs:    1 ave 1 max 1 min
Histogram: 1 0 0 0 0 0 0 0 0 0

Total # of neighbors = 1
Ave neighs/atom = 0.5
Ave special neighs/atom = 0
Neighbor list builds = 0
Dangerous builds = 0
Displacing atoms ...
Neighbor list info ...
  update every 1 steps, delay 10 steps, check yes
  max neighbors/atom: 2000, page size: 100000
  master list distance cutoff = 3.8
  ghost atom cutoff = 3.8
  binsize = 1.9, bins = 22 22 22
  6 neighbor lists, perpetual/occasional/extra = 5 1 0
  (1) pair lj/expand/twopiece, perpetual, skip from (6)
      attributes: half, newton on
      pair build: skip
      stencil: none
      bin: none
  (2) pair soft/shift, perpetual, skip from (6)
      attributes: half, newton on
      pair build: skip
      stencil: none
      bin: none
  (3) pair zero, perpetual, skip from (6)
      attributes: half, newton on
      pair build: skip
      stencil: none
      bin: none
  (4) pair morse, perpetual, skip from (6)
      attributes: half, newton on
      pair build: skip
      stencil: none
      bin: none
  (5) compute pair/local, occasional, copy from (6)
      attributes: half, newton on
      pair build: copy
      stencil: none
      bin: none
  (6) neighbor class addition, perpetual
      attributes: half, newton on
      pair build: half/bin/newton
      stencil: half/bin/3d/newton
      bin: standard
Setting up Verlet run ...
  Unit style    : lj
  Current step  : 19000
  Time step     : 0.001
Per MPI rank memory allocation (min/avg/max) = 9.126 | 9.126 | 9.126 Mbytes
Step Temp E_pair E_mol TotEng Press 
   19000            0 -0.001727366            0 -0.001727366 -1.7445151e-07 
   19200            0 -0.001727366            0 -0.001727366 -1.7445151e-07 
   19400            0 -0.001727366            0 -0.001727366 -1.7445151e-07 
   19600            0 -0.001727366            0 -0.001727366 -1.7445151e-07 
   19800            0 -0.001727366            0 -0.001727366 -1.7445151e-07 
   20000            0 -0.001727366            0 -0.001727366 -1.7445151e-07 
Loop time of 0.00397396 on 1 procs for 1000 steps with 2 atoms

Performance: 21741532.613 tau/day, 251638.109 timesteps/s
0.0% CPU use with 1 MPI tasks x 1 OpenMP threads

MPI task timing breakdown:
Section |  min time  |  avg time  |  max time  |%varavg| %total
---------------------------------------------------------------
Pair    | 0.0005064  | 0.0005064  | 0.0005064  |   0.0 | 12.74
Bond    | 0.00030375 | 0.00030375 | 0.00030375 |   0.0 |  7.64
Neigh   | 0          | 0          | 0          |   0.0 |  0.00
Comm    | 0.00052047 | 0.00052047 | 0.00052047 |   0.0 | 13.10
Output  | 0.0012519  | 0.0012519  | 0.0012519  |   0.0 | 31.50
Modify  | 0.0005343  | 0.0005343  | 0.0005343  |   0.0 | 13.44
Other   |            | 0.0008571  |            |       | 21.57

Nlocal:    2 ave 2 max 2 min
Histogram: 1 0 0 0 0 0 0 0 0 0
Nghost:    0 ave 0 max 0 min
Histogram: 1 0 0 0 0 0 0 0 0 0
Neighs:    1 ave 1 max 1 min
Histogram: 1 0 0 0 0 0 0 0 0 0

Total # of neighbors = 1
Ave neighs/atom = 0.5
Ave special neighs/atom = 0
Neighbor list builds = 0
Dangerous builds = 0
Displacing atoms ...
Neighbor list info ...
  update every 1 steps, delay 10 steps, check yes
  max neighbors/atom: 2000, page size: 100000
  master list distance cutoff = 3.8
  ghost atom cutoff = 3.8
  binsize = 1.9, bins = 22 22 22
  6 neighbor lists, perpetual/occasional/extra = 5 1 0
  (1) pair lj/expand/twopiece, perpetual, skip from (6)
      attributes: half, newton on
      pair build: skip
      stencil: none
      bin: none
  (2) pair soft/shift, perpetual, skip from (6)
      attributes: half, newton on
      pair build: skip
      stencil: none
      bin: none
  (3) pair zero, perpetual, skip from (6)
      attributes: half, newton on
      pair build: skip
      stencil: none
      bin: none
  (4) pair morse, perpetual, skip from (6)
      attributes: half, newton on
      pair build: skip
      stencil: none
      bin: none
  (5) compute pair/local, occasional, copy from (6)
      attributes: half, newton on
      pair build: copy
      stencil: none
      bin: none
  (6) neighbor class addition, perpetual
      attributes: half, newton on
      pair build: half/bin/newton
      stencil: half/bin/3d/newton
      bin: standard
Setting up Verlet run ...
  Unit style    : lj
  Current step  : 20000
  Time step     : 0.001
Per MPI rank memory allocation (min/avg/max) = 9.126 | 9.126 | 9.126 Mbytes
Step Temp E_pair E_mol TotEng Press 
   20000            0 -0.0018609104            0 -0.0018609104 -1.8882253e-07 
   20200            0 -0.0018609104            0 -0.0018609104 -1.8882253e-07 
   20400            0 -0.0018609104            0 -0.0018609104 -1.8882253e-07 
   20600            0 -0.0018609104            0 -0.0018609104 -1.8882253e-07 
   20800            0 -0.0018609104            0 -0.0018609104 -1.8882253e-07 
   21000            0 -0.0018609104            0 -0.0018609104 -1.8882253e-07 
Loop time of 0.00398302 on 1 procs for 1000 steps with 2 atoms

Performance: 21692078.630 tau/day, 251065.725 timesteps/s
0.0% CPU use with 1 MPI tasks x 1 OpenMP threads

MPI task timing breakdown:
Section |  min time  |  avg time  |  max time  |%varavg| %total
---------------------------------------------------------------
Pair    | 0.00050855 | 0.00050855 | 0.00050855 |   0.0 | 12.77
Bond    | 0.00031543 | 0.00031543 | 0.00031543 |   0.0 |  7.92
Neigh   | 0          | 0          | 0          |   0.0 |  0.00
Comm    | 0.0005486  | 0.0005486  | 0.0005486  |   0.0 | 13.77
Output  | 0.0012619  | 0.0012619  | 0.0012619  |   0.0 | 31.68
Modify  | 0.00052094 | 0.00052094 | 0.00052094 |   0.0 | 13.08
Other   |            | 0.0008276  |            |       | 20.78

Nlocal:    2 ave 2 max 2 min
Histogram: 1 0 0 0 0 0 0 0 0 0
Nghost:    0 ave 0 max 0 min
Histogram: 1 0 0 0 0 0 0 0 0 0
Neighs:    1 ave 1 max 1 min
Histogram: 1 0 0 0 0 0 0 0 0 0

Total # of neighbors = 1
Ave neighs/atom = 0.5
Ave special neighs/atom = 0
Neighbor list builds = 0
Dangerous builds = 0
Displacing atoms ...
Neighbor list info ...
  update every 1 steps, delay 10 steps, check yes
  max neighbors/atom: 2000, page size: 100000
  master list distance cutoff = 3.8
  ghost atom cutoff = 3.8
  binsize = 1.9, bins = 22 22 22
  6 neighbor lists, perpetual/occasional/extra = 5 1 0
  (1) pair lj/expand/twopiece, perpetual, skip from (6)
      attributes: half, newton on
      pair build: skip
      stencil: none
      bin: none
  (2) pair soft/shift, perpetual, skip from (6)
      attributes: half, newton on
      pair build: skip
      stencil: none
      bin: none
  (3) pair zero, perpetual, skip from (6)
      attributes: half, newton on
      pair build: skip
      stencil: none
      bin: none
  (4) pair morse, perpetual, skip from (6)
      attributes: half, newton on
      pair build: skip
      stencil: none
      bin: none
  (5) compute pair/local, occasional, copy from (6)
      attributes: half, newton on
      pair build: copy
      stencil: none
      bin: none
  (6) neighbor class addition, perpetual
      attributes: half, newton on
      pair build: half/bin/newton
      stencil: half/bin/3d/newton
      bin: standard
Setting up Verlet run ...
  Unit style    : lj
  Current step  : 21000
  Time step     : 0.001
Per MPI rank memory allocation (min/avg/max) = 9.126 | 9.126 | 9.126 Mbytes
Step Temp E_pair E_mol TotEng Press 
   21000            0 -0.0020066476            0 -0.0020066476 -2.0458647e-07 
   21200            0 -0.0020066476            0 -0.0020066476 -2.0458647e-07 
   21400            0 -0.0020066476            0 -0.0020066476 -2.0458647e-07 
   21600            0 -0.0020066476            0 -0.0020066476 -2.0458647e-07 
   21800            0 -0.0020066476            0 -0.0020066476 -2.0458647e-07 
   22000            0 -0.0020066476            0 -0.0020066476 -2.0458647e-07 
Loop time of 0.005023 on 1 procs for 1000 steps with 2 atoms

Performance: 17200866.983 tau/day, 199084.109 timesteps/s
0.0% CPU use with 1 MPI tasks x 1 OpenMP threads

MPI task timing breakdown:
Section |  min time  |  avg time  |  max time  |%varavg| %total
---------------------------------------------------------------
Pair    | 0.00064516 | 0.00064516 | 0.00064516 |   0.0 | 12.84
Bond    | 0.00040913 | 0.00040913 | 0.00040913 |   0.0 |  8.15
Neigh   | 0          | 0          | 0          |   0.0 |  0.00
Comm    | 0.00063348 | 0.00063348 | 0.00063348 |   0.0 | 12.61
Output  | 0.001852   | 0.001852   | 0.001852   |   0.0 | 36.87
Modify  | 0.00057006 | 0.00057006 | 0.00057006 |   0.0 | 11.35
Other   |            | 0.0009131  |            |       | 18.18

Nlocal:    2 ave 2 max 2 min
Histogram: 1 0 0 0 0 0 0 0 0 0
Nghost:    0 ave 0 max 0 min
Histogram: 1 0 0 0 0 0 0 0 0 0
Neighs:    1 ave 1 max 1 min
Histogram: 1 0 0 0 0 0 0 0 0 0

Total # of neighbors = 1
Ave neighs/atom = 0.5
Ave special neighs/atom = 0
Neighbor list builds = 0
Dangerous builds = 0
Displacing atoms ...
Neighbor list info ...
  update every 1 steps, delay 10 steps, check yes
  max neighbors/atom: 2000, page size: 100000
  master list distance cutoff = 3.8
  ghost atom cutoff = 3.8
  binsize = 1.9, bins = 22 22 22
  6 neighbor lists, perpetual/occasional/extra = 5 1 0
  (1) pair lj/expand/twopiece, perpetual, skip from (6)
      attributes: half, newton on
      pair build: skip
      stencil: none
      bin: none
  (2) pair soft/shift, perpetual, skip from (6)
      attributes: half, newton on
      pair build: skip
      stencil: none
      bin: none
  (3) pair zero, perpetual, skip from (6)
      attributes: half, newton on
      pair build: skip
      stencil: none
      bin: none
  (4) pair morse, perpetual, skip from (6)
      attributes: half, newton on
      pair build: skip
      stencil: none
      bin: none
  (5) compute pair/local, occasional, copy from (6)
      attributes: half, newton on
      pair build: copy
      stencil: none
      bin: none
  (6) neighbor class addition, perpetual
      attributes: half, newton on
      pair build: half/bin/newton
      stencil: half/bin/3d/newton
      bin: standard
Setting up Verlet run ...
  Unit style    : lj
  Current step  : 22000
  Time step     : 0.001
Per MPI rank memory allocation (min/avg/max) = 9.126 | 9.126 | 9.126 Mbytes
Step Temp E_pair E_mol TotEng Press 
   22000            0 -0.0021658649            0 -0.0021658649 -2.218989e-07 
   22200            0 -0.0021658649            0 -0.0021658649 -2.218989e-07 
   22400            0 -0.0021658649            0 -0.0021658649 -2.218989e-07 
   22600            0 -0.0021658649            0 -0.0021658649 -2.218989e-07 
   22800            0 -0.0021658649            0 -0.0021658649 -2.218989e-07 
   23000            0 -0.0021658649            0 -0.0021658649 -2.218989e-07 
Loop time of 0.00515199 on 1 procs for 1000 steps with 2 atoms

Performance: 16770228.405 tau/day, 194099.866 timesteps/s
0.0% CPU use with 1 MPI tasks x 1 OpenMP threads

MPI task timing breakdown:
Section |  min time  |  avg time  |  max time  |%varavg| %total
---------------------------------------------------------------
Pair    | 0.00069094 | 0.00069094 | 0.00069094 |   0.0 | 13.41
Bond    | 0.0004096  | 0.0004096  | 0.0004096  |   0.0 |  7.95
Neigh   | 0          | 0          | 0          |   0.0 |  0.00
Comm    | 0.00068855 | 0.00068855 | 0.00068855 |   0.0 | 13.36
Output  | 0.0018208  | 0.0018208  | 0.0018208  |   0.0 | 35.34
Modify  | 0.00059485 | 0.00059485 | 0.00059485 |   0.0 | 11.55
Other   |            | 0.0009472  |            |       | 18.39

Nlocal:    2 ave 2 max 2 min
Histogram: 1 0 0 0 0 0 0 0 0 0
Nghost:    0 ave 0 max 0 min
Histogram: 1 0 0 0 0 0 0 0 0 0
Neighs:    1 ave 1 max 1 min
Histogram: 1 0 0 0 0 0 0 0 0 0

Total # of neighbors = 1
Ave neighs/atom = 0.5
Ave special neighs/atom = 0
Neighbor list builds = 0
Dangerous builds = 0
Displacing atoms ...
Neighbor list info ...
  update every 1 steps, delay 10 steps, check yes
  max neighbors/atom: 2000, page size: 100000
  master list distance cutoff = 3.8
  ghost atom cutoff = 3.8
  binsize = 1.9, bins = 22 22 22
  6 neighbor lists, perpetual/occasional/extra = 5 1 0
  (1) pair lj/expand/twopiece, perpetual, skip from (6)
      attributes: half, newton on
      pair build: skip
      stencil: none
      bin: none
  (2) pair soft/shift, perpetual, skip from (6)
      attributes: half, newton on
      pair build: skip
      stencil: none
      bin: none
  (3) pair zero, perpetual, skip from (6)
      attributes: half, newton on
      pair build: skip
      stencil: none
      bin: none
  (4) pair morse, perpetual, skip from (6)
      attributes: half, newton on
      pair build: skip
      stencil: none
      bin: none
  (5) compute pair/local, occasional, copy from (6)
      attributes: half, newton on
      pair build: copy
      stencil: none
      bin: none
  (6) neighbor class addition, perpetual
      attributes: half, newton on
      pair build: half/bin/newton
      stencil: half/bin/3d/newton
      bin: standard
Setting up Verlet run ...
  Unit style    : lj
  Current step  : 23000
  Time step     : 0.001
Per MPI rank memory allocation (min/avg/max) = 9.126 | 9.126 | 9.126 Mbytes
Step Temp E_pair E_mol TotEng Press 
   23000            0 -0.0023400044            0 -0.0023400044 -2.409351e-07 
   23200            0 -0.0023400044            0 -0.0023400044 -2.409351e-07 
   23400            0 -0.0023400044            0 -0.0023400044 -2.409351e-07 
   23600            0 -0.0023400044            0 -0.0023400044 -2.409351e-07 
   23800            0 -0.0023400044            0 -0.0023400044 -2.409351e-07 
   24000            0 -0.0023400044            0 -0.0023400044 -2.409351e-07 
Loop time of 0.00408101 on 1 procs for 1000 steps with 2 atoms

Performance: 21171225.425 tau/day, 245037.331 timesteps/s
0.0% CPU use with 1 MPI tasks x 1 OpenMP threads

MPI task timing breakdown:
Section |  min time  |  avg time  |  max time  |%varavg| %total
---------------------------------------------------------------
Pair    | 0.00054812 | 0.00054812 | 0.00054812 |   0.0 | 13.43
Bond    | 0.00033426 | 0.00033426 | 0.00033426 |   0.0 |  8.19
Neigh   | 0          | 0          | 0          |   0.0 |  0.00
Comm    | 0.0005312  | 0.0005312  | 0.0005312  |   0.0 | 13.02
Output  | 0.0012681  | 0.0012681  | 0.0012681  |   0.0 | 31.07
Modify  | 0.00051761 | 0.00051761 | 0.00051761 |   0.0 | 12.68
Other   |            | 0.0008817  |            |       | 21.60

Nlocal:    2 ave 2 max 2 min
Histogram: 1 0 0 0 0 0 0 0 0 0
Nghost:    0 ave 0 max 0 min
Histogram: 1 0 0 0 0 0 0 0 0 0
Neighs:    1 ave 1 max 1 min
Histogram: 1 0 0 0 0 0 0 0 0 0

Total # of neighbors = 1
Ave neighs/atom = 0.5
Ave special neighs/atom = 0
Neighbor list builds = 0
Dangerous builds = 0
Displacing atoms ...
Neighbor list info ...
  update every 1 steps, delay 10 steps, check yes
  max neighbors/atom: 2000, page size: 100000
  master list distance cutoff = 3.8
  ghost atom cutoff = 3.8
  binsize = 1.9, bins = 22 22 22
  6 neighbor lists, perpetual/occasional/extra = 5 1 0
  (1) pair lj/expand/twopiece, perpetual, skip from (6)
      attributes: half, newton on
      pair build: skip
      stencil: none
      bin: none
  (2) pair soft/shift, perpetual, skip from (6)
      attributes: half, newton on
      pair build: skip
      stencil: none
      bin: none
  (3) pair zero, perpetual, skip from (6)
      attributes: half, newton on
      pair build: skip
      stencil: none
      bin: none
  (4) pair morse, perpetual, skip from (6)
      attributes: half, newton on
      pair build: skip
      stencil: none
      bin: none
  (5) compute pair/local, occasional, copy from (6)
      attributes: half, newton on
      pair build: copy
      stencil: none
      bin: none
  (6) neighbor class addition, perpetual
      attributes: half, newton on
      pair build: half/bin/newton
      stencil: half/bin/3d/newton
      bin: standard
Setting up Verlet run ...
  Unit style    : lj
  Current step  : 24000
  Time step     : 0.001
Per MPI rank memory allocation (min/avg/max) = 9.126 | 9.126 | 9.126 Mbytes
Step Temp E_pair E_mol TotEng Press 
   24000            0 -0.002530684            0 -0.002530684 -2.6189283e-07 
   24200            0 -0.002530684            0 -0.002530684 -2.6189283e-07 
   24400            0 -0.002530684            0 -0.002530684 -2.6189283e-07 
   24600            0 -0.002530684            0 -0.002530684 -2.6189283e-07 
   24800            0 -0.002530684            0 -0.002530684 -2.6189283e-07 
   25000            0 -0.002530684            0 -0.002530684 -2.6189283e-07 
Loop time of 0.00399303 on 1 procs for 1000 steps with 2 atoms

Performance: 21637680.057 tau/day, 250436.112 timesteps/s
0.0% CPU use with 1 MPI tasks x 1 OpenMP threads

MPI task timing breakdown:
Section |  min time  |  avg time  |  max time  |%varavg| %total
---------------------------------------------------------------
Pair    | 0.00049281 | 0.00049281 | 0.00049281 |   0.0 | 12.34
Bond    | 0.00029993 | 0.00029993 | 0.00029993 |   0.0 |  7.51
Neigh   | 0          | 0          | 0          |   0.0 |  0.00
Comm    | 0.00054216 | 0.00054216 | 0.00054216 |   0.0 | 13.58
Output  | 0.0012872  | 0.0012872  | 0.0012872  |   0.0 | 32.24
Modify  | 0.00051928 | 0.00051928 | 0.00051928 |   0.0 | 13.00
Other   |            | 0.0008516  |            |       | 21.33

Nlocal:    2 ave 2 max 2 min
Histogram: 1 0 0 0 0 0 0 0 0 0
Nghost:    0 ave 0 max 0 min
Histogram: 1 0 0 0 0 0 0 0 0 0
Neighs:    1 ave 1 max 1 min
Histogram: 1 0 0 0 0 0 0 0 0 0

Total # of neighbors = 1
Ave neighs/atom = 0.5
Ave special neighs/atom = 0
Neighbor list builds = 0
Dangerous builds = 0
Displacing atoms ...
Neighbor list info ...
  update every 1 steps, delay 10 steps, check yes
  max neighbors/atom: 2000, page size: 100000
  master list distance cutoff = 3.8
  ghost atom cutoff = 3.8
  binsize = 1.9, bins = 22 22 22
  6 neighbor lists, perpetual/occasional/extra = 5 1 0
  (1) pair lj/expand/twopiece, perpetual, skip from (6)
      attributes: half, newton on
      pair build: skip
      stencil: none
      bin: none
  (2) pair soft/shift, perpetual, skip from (6)
      attributes: half, newton on
      pair build: skip
      stencil: none
      bin: none
  (3) pair zero, perpetual, skip from (6)
      attributes: half, newton on
      pair build: skip
      stencil: none
      bin: none
  (4) pair morse, perpetual, skip from (6)
      attributes: half, newton on
      pair build: skip
      stencil: none
      bin: none
  (5) compute pair/local, occasional, copy from (6)
      attributes: half, newton on
      pair build: copy
      stencil: none
      bin: none
  (6) neighbor class addition, perpetual
      attributes: half, newton on
      pair build: half/bin/newton
      stencil: half/bin/3d/newton
      bin: standard
Setting up Verlet run ...
  Unit style    : lj
  Current step  : 25000
  Time step     : 0.001
Per MPI rank memory allocation (min/avg/max) = 9.126 | 9.126 | 9.126 Mbytes
Step Temp E_pair E_mol TotEng Press 
   25000            0 -0.0027397209            0 -0.0027397209 -2.8499557e-07 
   25200            0 -0.0027397209            0 -0.0027397209 -2.8499557e-07 
   25400            0 -0.0027397209            0 -0.0027397209 -2.8499557e-07 
   25600            0 -0.0027397209            0 -0.0027397209 -2.8499557e-07 
   25800            0 -0.0027397209            0 -0.0027397209 -2.8499557e-07 
   26000            0 -0.0027397209            0 -0.0027397209 -2.8499557e-07 
Loop time of 0.00386 on 1 procs for 1000 steps with 2 atoms

Performance: 22383438.271 tau/day, 259067.573 timesteps/s
0.0% CPU use with 1 MPI tasks x 1 OpenMP threads

MPI task timing breakdown:
Section |  min time  |  avg time  |  max time  |%varavg| %total
---------------------------------------------------------------
Pair    | 0.00048542 | 0.00048542 | 0.00048542 |   0.0 | 12.58
Bond    | 0.00029993 | 0.00029993 | 0.00029993 |   0.0 |  7.77
Neigh   | 0          | 0          | 0          |   0.0 |  0.00
Comm    | 0.00054264 | 0.00054264 | 0.00054264 |   0.0 | 14.06
Output  | 0.0011785  | 0.0011785  | 0.0011785  |   0.0 | 30.53
Modify  | 0.00053549 | 0.00053549 | 0.00053549 |   0.0 | 13.87
Other   |            | 0.000818   |            |       | 21.19

Nlocal:    2 ave 2 max 2 min
Histogram: 1 0 0 0 0 0 0 0 0 0
Nghost:    0 ave 0 max 0 min
Histogram: 1 0 0 0 0 0 0 0 0 0
Neighs:    1 ave 1 max 1 min
Histogram: 1 0 0 0 0 0 0 0 0 0

Total # of neighbors = 1
Ave neighs/atom = 0.5
Ave special neighs/atom = 0
Neighbor list builds = 0
Dangerous builds = 0
Displacing atoms ...
Neighbor list info ...
  update every 1 steps, delay 10 steps, check yes
  max neighbors/atom: 2000, page size: 100000
  master list distance cutoff = 3.8
  ghost atom cutoff = 3.8
  binsize = 1.9, bins = 22 22 22
  6 neighbor lists, perpetual/occasional/extra = 5 1 0
  (1) pair lj/expand/twopiece, perpetual, skip from (6)
      attributes: half, newton on
      pair build: skip
      stencil: none
      bin: none
  (2) pair soft/shift, perpetual, skip from (6)
      attributes: half, newton on
      pair build: skip
      stencil: none
      bin: none
  (3) pair zero, perpetual, skip from (6)
      attributes: half, newton on
      pair build: skip
      stencil: none
      bin: none
  (4) pair morse, perpetual, skip from (6)
      attributes: half, newton on
      pair build: skip
      stencil: none
      bin: none
  (5) compute pair/local, occasional, copy from (6)
      attributes: half, newton on
      pair build: copy
      stencil: none
      bin: none
  (6) neighbor class addition, perpetual
      attributes: half, newton on
      pair build: half/bin/newton
      stencil: half/bin/3d/newton
      bin: standard
Setting up Verlet run ...
  Unit style    : lj
  Current step  : 26000
  Time step     : 0.001
Per MPI rank memory allocation (min/avg/max) = 9.126 | 9.126 | 9.126 Mbytes
Step Temp E_pair E_mol TotEng Press 
   26000            0 -0.0029691596            0 -0.0029691596 -3.1049626e-07 
   26200            0 -0.0029691596            0 -0.0029691596 -3.1049626e-07 
   26400            0 -0.0029691596            0 -0.0029691596 -3.1049626e-07 
   26600            0 -0.0029691596            0 -0.0029691596 -3.1049626e-07 
   26800            0 -0.0029691596            0 -0.0029691596 -3.1049626e-07 
   27000            0 -0.0029691596            0 -0.0029691596 -3.1049626e-07 
Loop time of 0.0038259 on 1 procs for 1000 steps with 2 atoms

Performance: 22582904.319 tau/day, 261376.207 timesteps/s
0.0% CPU use with 1 MPI tasks x 1 OpenMP threads

MPI task timing breakdown:
Section |  min time  |  avg time  |  max time  |%varavg| %total
---------------------------------------------------------------
Pair    | 0.00048971 | 0.00048971 | 0.00048971 |   0.0 | 12.80
Bond    | 0.00029039 | 0.00029039 | 0.00029039 |   0.0 |  7.59
Neigh   | 0          | 0          | 0          |   0.0 |  0.00
Comm    | 0.00052714 | 0.00052714 | 0.00052714 |   0.0 | 13.78
Output  | 0.0011575  | 0.0011575  | 0.0011575  |   0.0 | 30.25
Modify  | 0.0005157  | 0.0005157  | 0.0005157  |   0.0 | 13.48
Other   |            | 0.0008454  |            |       | 22.10

Nlocal:    2 ave 2 max 2 min
Histogram: 1 0 0 0 0 0 0 0 0 0
Nghost:    0 ave 0 max 0 min
Histogram: 1 0 0 0 0 0 0 0 0 0
Neighs:    1 ave 1 max 1 min
Histogram: 1 0 0 0 0 0 0 0 0 0

Total # of neighbors = 1
Ave neighs/atom = 0.5
Ave special neighs/atom = 0
Neighbor list builds = 0
Dangerous builds = 0
Displacing atoms ...
Neighbor list info ...
  update every 1 steps, delay 10 steps, check yes
  max neighbors/atom: 2000, page size: 100000
  master list distance cutoff = 3.8
  ghost atom cutoff = 3.8
  binsize = 1.9, bins = 22 22 22
  6 neighbor lists, perpetual/occasional/extra = 5 1 0
  (1) pair lj/expand/twopiece, perpetual, skip from (6)
      attributes: half, newton on
      pair build: skip
      stencil: none
      bin: none
  (2) pair soft/shift, perpetual, skip from (6)
      attributes: half, newton on
      pair build: skip
      stencil: none
      bin: none
  (3) pair zero, perpetual, skip from (6)
      attributes: half, newton on
      pair build: skip
[...]
  (1) pair lj/expand/twopiece, perpetual, skip from (6)
      attributes: half, newton on
      pair build: skip
      stencil: none
      bin: none
  (2) pair soft/shift, perpetual, skip from (6)
      attributes: half, newton on
      pair build: skip
      stencil: none
      bin: none
  (3) pair zero, perpetual, skip from (6)
      attributes: half, newton on
      pair build: skip
      stencil: none
      bin: none
  (4) pair morse, perpetual, skip from (6)
      attributes: half, newton on
      pair build: skip
      stencil: none
      bin: none
  (5) compute pair/local, occasional, copy from (6)
      attributes: half, newton on
      pair build: copy
      stencil: none
      bin: none
  (6) neighbor class addition, perpetual
      attributes: half, newton on
      pair build: half/bin/newton
      stencil: half/bin/3d/newton
      bin: standard
Setting up Verlet run ...
  Unit style    : lj
  Current step  : 74000
  Time step     : 0.001
Per MPI rank memory allocation (min/avg/max) = 9.126 | 9.126 | 9.126 Mbytes
Step Temp E_pair E_mol TotEng Press 
   74000            0  -0.33143495            0  -0.33143495 0.00016766754 
   74200            0  -0.33143495            0  -0.33143495 0.00016766754 
   74400            0  -0.33143495            0  -0.33143495 0.00016766754 
   74600            0  -0.33143495            0  -0.33143495 0.00016766754 
   74800            0  -0.33143495            0  -0.33143495 0.00016766754 
   75000            0  -0.33143495            0  -0.33143495 0.00016766754 
Loop time of 0.00388217 on 1 procs for 1000 steps with 2 atoms

Performance: 22255595.750 tau/day, 257587.914 timesteps/s
0.0% CPU use with 1 MPI tasks x 1 OpenMP threads

MPI task timing breakdown:
Section |  min time  |  avg time  |  max time  |%varavg| %total
---------------------------------------------------------------
Pair    | 0.00049734 | 0.00049734 | 0.00049734 |   0.0 | 12.81
Bond    | 0.00030804 | 0.00030804 | 0.00030804 |   0.0 |  7.93
Neigh   | 0          | 0          | 0          |   0.0 |  0.00
Comm    | 0.00053477 | 0.00053477 | 0.00053477 |   0.0 | 13.78
Output  | 0.0012062  | 0.0012062  | 0.0012062  |   0.0 | 31.07
Modify  | 0.00052023 | 0.00052023 | 0.00052023 |   0.0 | 13.40
Other   |            | 0.0008156  |            |       | 21.01

Nlocal:    2 ave 2 max 2 min
Histogram: 1 0 0 0 0 0 0 0 0 0
Nghost:    0 ave 0 max 0 min
Histogram: 1 0 0 0 0 0 0 0 0 0
Neighs:    1 ave 1 max 1 min
Histogram: 1 0 0 0 0 0 0 0 0 0

Total # of neighbors = 1
Ave neighs/atom = 0.5
Ave special neighs/atom = 0
Neighbor list builds = 0
Dangerous builds = 0
Displacing atoms ...
Neighbor list info ...
  update every 1 steps, delay 10 steps, check yes
  max neighbors/atom: 2000, page size: 100000
  master list distance cutoff = 3.8
  ghost atom cutoff = 3.8
  binsize = 1.9, bins = 22 22 22
  6 neighbor lists, perpetual/occasional/extra = 5 1 0
  (1) pair lj/expand/twopiece, perpetual, skip from (6)
      attributes: half, newton on
      pair build: skip
      stencil: none
      bin: none
  (2) pair soft/shift, perpetual, skip from (6)
      attributes: half, newton on
      pair build: skip
      stencil: none
      bin: none
  (3) pair zero, perpetual, skip from (6)
      attributes: half, newton on
      pair build: skip
      stencil: none
      bin: none
  (4) pair morse, perpetual, skip from (6)
      attributes: half, newton on
      pair build: skip
      stencil: none
      bin: none
  (5) compute pair/local, occasional, copy from (6)
      attributes: half, newton on
      pair build: copy
      stencil: none
      bin: none
  (6) neighbor class addition, perpetual
      attributes: half, newton on
      pair build: half/bin/newton
      stencil: half/bin/3d/newton
      bin: standard
Setting up Verlet run ...
  Unit style    : lj
  Current step  : 75000
  Time step     : 0.001
Per MPI rank memory allocation (min/avg/max) = 9.126 | 9.126 | 9.126 Mbytes
Step Temp E_pair E_mol TotEng Press 
   75000            0 3.1974423e-14            0 3.1974423e-14     0.000375 
   75200            0 3.1974423e-14            0 3.1974423e-14     0.000375 
   75400            0 3.1974423e-14            0 3.1974423e-14     0.000375 
   75600            0 3.1974423e-14            0 3.1974423e-14     0.000375 
   75800            0 3.1974423e-14            0 3.1974423e-14     0.000375 
   76000            0 3.1974423e-14            0 3.1974423e-14     0.000375 
Loop time of 0.00391817 on 1 procs for 1000 steps with 2 atoms

Performance: 22051105.367 tau/day, 255221.127 timesteps/s
0.0% CPU use with 1 MPI tasks x 1 OpenMP threads

MPI task timing breakdown:
Section |  min time  |  avg time  |  max time  |%varavg| %total
---------------------------------------------------------------
Pair    | 0.00048494 | 0.00048494 | 0.00048494 |   0.0 | 12.38
Bond    | 0.00028849 | 0.00028849 | 0.00028849 |   0.0 |  7.36
Neigh   | 0          | 0          | 0          |   0.0 |  0.00
Comm    | 0.00053096 | 0.00053096 | 0.00053096 |   0.0 | 13.55
Output  | 0.0012243  | 0.0012243  | 0.0012243  |   0.0 | 31.25
Modify  | 0.00051665 | 0.00051665 | 0.00051665 |   0.0 | 13.19
Other   |            | 0.0008729  |            |       | 22.28

Nlocal:    2 ave 2 max 2 min
Histogram: 1 0 0 0 0 0 0 0 0 0
Nghost:    0 ave 0 max 0 min
Histogram: 1 0 0 0 0 0 0 0 0 0
Neighs:    1 ave 1 max 1 min
Histogram: 1 0 0 0 0 0 0 0 0 0

Total # of neighbors = 1
Ave neighs/atom = 0.5
Ave special neighs/atom = 0
Neighbor list builds = 0
Dangerous builds = 0
Displacing atoms ...
Neighbor list info ...
  update every 1 steps, delay 10 steps, check yes
  max neighbors/atom: 2000, page size: 100000
  master list distance cutoff = 3.8
  ghost atom cutoff = 3.8
  binsize = 1.9, bins = 22 22 22
  6 neighbor lists, perpetual/occasional/extra = 5 1 0
  (1) pair lj/expand/twopiece, perpetual, skip from (6)
      attributes: half, newton on
      pair build: skip
      stencil: none
      bin: none
  (2) pair soft/shift, perpetual, skip from (6)
      attributes: half, newton on
      pair build: skip
      stencil: none
      bin: none
  (3) pair zero, perpetual, skip from (6)
      attributes: half, newton on
      pair build: skip
      stencil: none
      bin: none
  (4) pair morse, perpetual, skip from (6)
      attributes: half, newton on
      pair build: skip
      stencil: none
      bin: none
  (5) compute pair/local, occasional, copy from (6)
      attributes: half, newton on
      pair build: copy
      stencil: none
      bin: none
  (6) neighbor class addition, perpetual
      attributes: half, newton on
      pair build: half/bin/newton
      stencil: half/bin/3d/newton
      bin: standard
Setting up Verlet run ...
  Unit style    : lj
  Current step  : 76000
  Time step     : 0.001
Per MPI rank memory allocation (min/avg/max) = 9.126 | 9.126 | 9.126 Mbytes
Step Temp E_pair E_mol TotEng Press 
   76000            0   0.70911947            0   0.70911947 0.00076568951 
   76200            0   0.70911947            0   0.70911947 0.00076568951 
   76400            0   0.70911947            0   0.70911947 0.00076568951 
   76600            0   0.70911947            0   0.70911947 0.00076568951 
   76800            0   0.70911947            0   0.70911947 0.00076568951 
   77000            0   0.70911947            0   0.70911947 0.00076568951 
Loop time of 0.00387383 on 1 procs for 1000 steps with 2 atoms

Performance: 22303536.780 tau/day, 258142.787 timesteps/s
0.0% CPU use with 1 MPI tasks x 1 OpenMP threads

MPI task timing breakdown:
Section |  min time  |  avg time  |  max time  |%varavg| %total
---------------------------------------------------------------
Pair    | 0.00050092 | 0.00050092 | 0.00050092 |   0.0 | 12.93
Bond    | 0.00030255 | 0.00030255 | 0.00030255 |   0.0 |  7.81
Neigh   | 0          | 0          | 0          |   0.0 |  0.00
Comm    | 0.00052619 | 0.00052619 | 0.00052619 |   0.0 | 13.58
Output  | 0.0011868  | 0.0011868  | 0.0011868  |   0.0 | 30.64
Modify  | 0.00052857 | 0.00052857 | 0.00052857 |   0.0 | 13.64
Other   |            | 0.0008287  |            |       | 21.39

Nlocal:    2 ave 2 max 2 min
Histogram: 1 0 0 0 0 0 0 0 0 0
Nghost:    0 ave 0 max 0 min
Histogram: 1 0 0 0 0 0 0 0 0 0
Neighs:    1 ave 1 max 1 min
Histogram: 1 0 0 0 0 0 0 0 0 0

Total # of neighbors = 1
Ave neighs/atom = 0.5
Ave special neighs/atom = 0
Neighbor list builds = 0
Dangerous builds = 0
Displacing atoms ...
Neighbor list info ...
  update every 1 steps, delay 10 steps, check yes
  max neighbors/atom: 2000, page size: 100000
  master list distance cutoff = 3.8
  ghost atom cutoff = 3.8
  binsize = 1.9, bins = 22 22 22
  6 neighbor lists, perpetual/occasional/extra = 5 1 0
  (1) pair lj/expand/twopiece, perpetual, skip from (6)
      attributes: half, newton on
      pair build: skip
      stencil: none
      bin: none
  (2) pair soft/shift, perpetual, skip from (6)
      attributes: half, newton on
      pair build: skip
      stencil: none
      bin: none
  (3) pair zero, perpetual, skip from (6)
      attributes: half, newton on
      pair build: skip
      stencil: none
      bin: none
  (4) pair morse, perpetual, skip from (6)
      attributes: half, newton on
      pair build: skip
      stencil: none
      bin: none
  (5) compute pair/local, occasional, copy from (6)
      attributes: half, newton on
      pair build: copy
      stencil: none
      bin: none
  (6) neighbor class addition, perpetual
      attributes: half, newton on
      pair build: half/bin/newton
      stencil: half/bin/3d/newton
      bin: standard
Setting up Verlet run ...
  Unit style    : lj
  Current step  : 77000
  Time step     : 0.001
Per MPI rank memory allocation (min/avg/max) = 9.126 | 9.126 | 9.126 Mbytes
Step Temp E_pair E_mol TotEng Press 
   77000            0    2.1413162            0    2.1413162 0.0015038457 
   77200            0    2.1413162            0    2.1413162 0.0015038457 
   77400            0    2.1413162            0    2.1413162 0.0015038457 
   77600            0    2.1413162            0    2.1413162 0.0015038457 
   77800            0    2.1413162            0    2.1413162 0.0015038457 
   78000            0    2.1413162            0    2.1413162 0.0015038457 
Loop time of 0.00380111 on 1 procs for 1000 steps with 2 atoms

Performance: 22730218.002 tau/day, 263081.227 timesteps/s
0.0% CPU use with 1 MPI tasks x 1 OpenMP threads

MPI task timing breakdown:
Section |  min time  |  avg time  |  max time  |%varavg| %total
---------------------------------------------------------------
Pair    | 0.00047684 | 0.00047684 | 0.00047684 |   0.0 | 12.54
Bond    | 0.00029373 | 0.00029373 | 0.00029373 |   0.0 |  7.73
Neigh   | 0          | 0          | 0          |   0.0 |  0.00
Comm    | 0.00052166 | 0.00052166 | 0.00052166 |   0.0 | 13.72
Output  | 0.0011401  | 0.0011401  | 0.0011401  |   0.0 | 29.99
Modify  | 0.00052953 | 0.00052953 | 0.00052953 |   0.0 | 13.93
Other   |            | 0.0008392  |            |       | 22.08

Nlocal:    2 ave 2 max 2 min
Histogram: 1 0 0 0 0 0 0 0 0 0
Nghost:    0 ave 0 max 0 min
Histogram: 1 0 0 0 0 0 0 0 0 0
Neighs:    1 ave 1 max 1 min
Histogram: 1 0 0 0 0 0 0 0 0 0

Total # of neighbors = 1
Ave neighs/atom = 0.5
Ave special neighs/atom = 0
Neighbor list builds = 0
Dangerous builds = 0
Displacing atoms ...
Neighbor list info ...
  update every 1 steps, delay 10 steps, check yes
  max neighbors/atom: 2000, page size: 100000
  master list distance cutoff = 3.8
  ghost atom cutoff = 3.8
  binsize = 1.9, bins = 22 22 22
  6 neighbor lists, perpetual/occasional/extra = 5 1 0
  (1) pair lj/expand/twopiece, perpetual, skip from (6)
      attributes: half, newton on
      pair build: skip
      stencil: none
      bin: none
  (2) pair soft/shift, perpetual, skip from (6)
      attributes: half, newton on
      pair build: skip
      stencil: none
      bin: none
  (3) pair zero, perpetual, skip from (6)
      attributes: half, newton on
      pair build: skip
      stencil: none
      bin: none
  (4) pair morse, perpetual, skip from (6)
      attributes: half, newton on
      pair build: skip
      stencil: none
      bin: none
  (5) compute pair/local, occasional, copy from (6)
      attributes: half, newton on
      pair build: copy
      stencil: none
      bin: none
  (6) neighbor class addition, perpetual
      attributes: half, newton on
      pair build: half/bin/newton
      stencil: half/bin/3d/newton
      bin: standard
Setting up Verlet run ...
  Unit style    : lj
  Current step  : 78000
  Time step     : 0.001
Per MPI rank memory allocation (min/avg/max) = 9.126 | 9.126 | 9.126 Mbytes
Step Temp E_pair E_mol TotEng Press 
   78000            0     4.966783            0     4.966783 0.0029127601 
   78200            0     4.966783            0     4.966783 0.0029127601 
   78400            0     4.966783            0     4.966783 0.0029127601 
   78600            0     4.966783            0     4.966783 0.0029127601 
   78800            0     4.966783            0     4.966783 0.0029127601 
   79000            0     4.966783            0     4.966783 0.0029127601 
Loop time of 0.00395608 on 1 procs for 1000 steps with 2 atoms

Performance: 21839803.869 tau/day, 252775.508 timesteps/s
0.0% CPU use with 1 MPI tasks x 1 OpenMP threads

MPI task timing breakdown:
Section |  min time  |  avg time  |  max time  |%varavg| %total
---------------------------------------------------------------
Pair    | 0.00048614 | 0.00048614 | 0.00048614 |   0.0 | 12.29
Bond    | 0.00030708 | 0.00030708 | 0.00030708 |   0.0 |  7.76
Neigh   | 0          | 0          | 0          |   0.0 |  0.00
Comm    | 0.00053477 | 0.00053477 | 0.00053477 |   0.0 | 13.52
Output  | 0.0012324  | 0.0012324  | 0.0012324  |   0.0 | 31.15
Modify  | 0.00055718 | 0.00055718 | 0.00055718 |   0.0 | 14.08
Other   |            | 0.0008385  |            |       | 21.20

Nlocal:    2 ave 2 max 2 min
Histogram: 1 0 0 0 0 0 0 0 0 0
Nghost:    0 ave 0 max 0 min
Histogram: 1 0 0 0 0 0 0 0 0 0
Neighs:    1 ave 1 max 1 min
Histogram: 1 0 0 0 0 0 0 0 0 0

Total # of neighbors = 1
Ave neighs/atom = 0.5
Ave special neighs/atom = 0
Neighbor list builds = 0
Dangerous builds = 0
Displacing atoms ...
Neighbor list info ...
  update every 1 steps, delay 10 steps, check yes
  max neighbors/atom: 2000, page size: 100000
  master list distance cutoff = 3.8
  ghost atom cutoff = 3.8
  binsize = 1.9, bins = 22 22 22
  6 neighbor lists, perpetual/occasional/extra = 5 1 0
  (1) pair lj/expand/twopiece, perpetual, skip from (6)
      attributes: half, newton on
      pair build: skip
      stencil: none
      bin: none
  (2) pair soft/shift, perpetual, skip from (6)
      attributes: half, newton on
      pair build: skip
      stencil: none
      bin: none
  (3) pair zero, perpetual, skip from (6)
      attributes: half, newton on
      pair build: skip
      stencil: none
      bin: none
  (4) pair morse, perpetual, skip from (6)
      attributes: half, newton on
      pair build: skip
      stencil: none
      bin: none
  (5) compute pair/local, occasional, copy from (6)
      attributes: half, newton on
      pair build: copy
      stencil: none
      bin: none
  (6) neighbor class addition, perpetual
      attributes: half, newton on
      pair build: half/bin/newton
      stencil: half/bin/3d/newton
      bin: standard
Setting up Verlet run ...
  Unit style    : lj
  Current step  : 79000
  Time step     : 0.001
Per MPI rank memory allocation (min/avg/max) = 9.126 | 9.126 | 9.126 Mbytes
Step Temp E_pair E_mol TotEng Press 
   79000            0     10.51293            0     10.51293 0.0056459859 
   79200            0     10.51293            0     10.51293 0.0056459859 
   79400            0     10.51293            0     10.51293 0.0056459859 
   79600            0     10.51293            0     10.51293 0.0056459859 
   79800            0     10.51293            0     10.51293 0.0056459859 
   80000            0     10.51293            0     10.51293 0.0056459859 
Loop time of 0.00398588 on 1 procs for 1000 steps with 2 atoms

Performance: 21676508.290 tau/day, 250885.513 timesteps/s
0.0% CPU use with 1 MPI tasks x 1 OpenMP threads

MPI task timing breakdown:
Section |  min time  |  avg time  |  max time  |%varavg| %total
---------------------------------------------------------------
Pair    | 0.00050116 | 0.00050116 | 0.00050116 |   0.0 | 12.57
Bond    | 0.00029087 | 0.00029087 | 0.00029087 |   0.0 |  7.30
Neigh   | 0          | 0          | 0          |   0.0 |  0.00
Comm    | 0.00054455 | 0.00054455 | 0.00054455 |   0.0 | 13.66
Output  | 0.0012722  | 0.0012722  | 0.0012722  |   0.0 | 31.92
Modify  | 0.00052762 | 0.00052762 | 0.00052762 |   0.0 | 13.24
Other   |            | 0.0008495  |            |       | 21.31

Nlocal:    2 ave 2 max 2 min
Histogram: 1 0 0 0 0 0 0 0 0 0
Nghost:    0 ave 0 max 0 min
Histogram: 1 0 0 0 0 0 0 0 0 0
Neighs:    1 ave 1 max 1 min
Histogram: 1 0 0 0 0 0 0 0 0 0

Total # of neighbors = 1
Ave neighs/atom = 0.5
Ave special neighs/atom = 0
Neighbor list builds = 0
Dangerous builds = 0
Displacing atoms ...
Neighbor list info ...
  update every 1 steps, delay 10 steps, check yes
  max neighbors/atom: 2000, page size: 100000
  master list distance cutoff = 3.8
  ghost atom cutoff = 3.8
  binsize = 1.9, bins = 22 22 22
  6 neighbor lists, perpetual/occasional/extra = 5 1 0
  (1) pair lj/expand/twopiece, perpetual, skip from (6)
      attributes: half, newton on
      pair build: skip
      stencil: none
      bin: none
  (2) pair soft/shift, perpetual, skip from (6)
      attributes: half, newton on
      pair build: skip
      stencil: none
      bin: none
  (3) pair zero, perpetual, skip from (6)
      attributes: half, newton on
      pair build: skip
      stencil: none
      bin: none
  (4) pair morse, perpetual, skip from (6)
      attributes: half, newton on
      pair build: skip
      stencil: none
      bin: none
  (5) compute pair/local, occasional, copy from (6)
      attributes: half, newton on
      pair build: copy
      stencil: none
      bin: none
  (6) neighbor class addition, perpetual
      attributes: half, newton on
      pair build: half/bin/newton
      stencil: half/bin/3d/newton
      bin: standard
Setting up Verlet run ...
  Unit style    : lj
  Current step  : 80000
  Time step     : 0.001
Per MPI rank memory allocation (min/avg/max) = 9.126 | 9.126 | 9.126 Mbytes
Step Temp E_pair E_mol TotEng Press 
   80000            0    21.474436            0    21.474436  0.011063996 
   80200            0    21.474436            0    21.474436  0.011063996 
   80400            0    21.474436            0    21.474436  0.011063996 
   80600            0    21.474436            0    21.474436  0.011063996 
   80800            0    21.474436            0    21.474436  0.011063996 
   81000            0    21.474436            0    21.474436  0.011063996 
Loop time of 0.00381994 on 1 procs for 1000 steps with 2 atoms

Performance: 22618141.655 tau/day, 261784.047 timesteps/s
0.0% CPU use with 1 MPI tasks x 1 OpenMP threads

MPI task timing breakdown:
Section |  min time  |  avg time  |  max time  |%varavg| %total
---------------------------------------------------------------
Pair    | 0.000489   | 0.000489   | 0.000489   |   0.0 | 12.80
Bond    | 0.00029016 | 0.00029016 | 0.00029016 |   0.0 |  7.60
Neigh   | 0          | 0          | 0          |   0.0 |  0.00
Comm    | 0.00051618 | 0.00051618 | 0.00051618 |   0.0 | 13.51
Output  | 0.0011725  | 0.0011725  | 0.0011725  |   0.0 | 30.70
Modify  | 0.00052094 | 0.00052094 | 0.00052094 |   0.0 | 13.64
Other   |            | 0.0008311  |            |       | 21.76

Nlocal:    2 ave 2 max 2 min
Histogram: 1 0 0 0 0 0 0 0 0 0
Nghost:    0 ave 0 max 0 min
Histogram: 1 0 0 0 0 0 0 0 0 0
Neighs:    1 ave 1 max 1 min
Histogram: 1 0 0 0 0 0 0 0 0 0

Total # of neighbors = 1
Ave neighs/atom = 0.5
Ave special neighs/atom = 0
Neighbor list builds = 0
Dangerous builds = 0
Total wall time: 0:00:00
