LAMMPS (7 Aug 2019)
OMP_NUM_THREADS environment is not set. Defaulting to 1 thread. (src/comm.cpp:93)
  using 1 OpenMP thread(s) per MPI task
Reading data file ...
  orthogonal box = (-20 -20 -20) to (20 20 20)
  1 by 1 by 1 MPI processor grid
  reading atoms ...
  2 atoms
Finding 1-2 1-3 1-4 neighbors ...
  special bond factors lj:   0          0          0         
  special bond factors coul: 0          0          0         
  0 = max # of 1-2 neighbors
  0 = max # of 1-3 neighbors
  0 = max # of 1-4 neighbors
  1 = max # of special neighbors
  special bonds CPU = 4.1e-05 secs
  read_data CPU = 0.001345 secs
1 atoms in group atom1
1 atoms in group atom2
Neighbor list info ...
  update every 1 steps, delay 10 steps, check yes
  max neighbors/atom: 2000, page size: 100000
  master list distance cutoff = 3.8
  ghost atom cutoff = 3.8
  binsize = 1.9, bins = 22 22 22
  6 neighbor lists, perpetual/occasional/extra = 5 1 0
  (1) pair lj/expand/twopiece, perpetual, skip from (6)
      attributes: half, newton on
      pair build: skip
      stencil: none
      bin: none
  (2) pair soft/shift, perpetual, skip from (6)
      attributes: half, newton on
      pair build: skip
      stencil: none
      bin: none
  (3) pair zero, perpetual, skip from (6)
      attributes: half, newton on
      pair build: skip
      stencil: none
      bin: none
  (4) pair morse, perpetual, skip from (6)
      attributes: half, newton on
      pair build: skip
      stencil: none
      bin: none
  (5) compute pair/local, occasional, copy from (6)
      attributes: half, newton on
      pair build: copy
      stencil: none
      bin: none
  (6) neighbor class addition, perpetual
      attributes: half, newton on
      pair build: half/bin/newton
      stencil: half/bin/3d/newton
      bin: standard
Setting up Verlet run ...
  Unit style    : lj
  Current step  : 0
  Time step     : 0.001
Per MPI rank memory allocation (min/avg/max) = 8.258 | 8.258 | 8.258 Mbytes
Step Temp E_pair E_mol TotEng Press 
       0            0 -0.00048816204            0 -0.00048816204 -4.5754015e-08 
     200            0 -0.00048816204            0 -0.00048816204 -4.5754015e-08 
     400            0 -0.00048816204            0 -0.00048816204 -4.5754015e-08 
     600            0 -0.00048816204            0 -0.00048816204 -4.5754015e-08 
     800            0 -0.00048816204            0 -0.00048816204 -4.5754015e-08 
    1000            0 -0.00048816204            0 -0.00048816204 -4.5754015e-08 
Loop time of 0.020573 on 1 procs for 1000 steps with 2 atoms

Performance: 4199679.200 tau/day, 48607.398 timesteps/s
0.0% CPU use with 1 MPI tasks x 1 OpenMP threads

MPI task timing breakdown:
Section |  min time  |  avg time  |  max time  |%varavg| %total
---------------------------------------------------------------
Pair    | 0.001821   | 0.001821   | 0.001821   |   0.0 |  8.85
Bond    | 0.001444   | 0.001444   | 0.001444   |   0.0 |  7.02
Neigh   | 0          | 0          | 0          |   0.0 |  0.00
Comm    | 0.002742   | 0.002742   | 0.002742   |   0.0 | 13.33
Output  | 0.004754   | 0.004754   | 0.004754   |   0.0 | 23.11
Modify  | 0.002608   | 0.002608   | 0.002608   |   0.0 | 12.68
Other   |            | 0.007204   |            |       | 35.02

Nlocal:    2 ave 2 max 2 min
Histogram: 1 0 0 0 0 0 0 0 0 0
Nghost:    0 ave 0 max 0 min
Histogram: 1 0 0 0 0 0 0 0 0 0
Neighs:    1 ave 1 max 1 min
Histogram: 1 0 0 0 0 0 0 0 0 0

Total # of neighbors = 1
Ave neighs/atom = 0.5
Ave special neighs/atom = 0
Neighbor list builds = 0
Dangerous builds = 0
Displacing atoms ...
Neighbor list info ...
  update every 1 steps, delay 10 steps, check yes
  max neighbors/atom: 2000, page size: 100000
  master list distance cutoff = 3.8
  ghost atom cutoff = 3.8
  binsize = 1.9, bins = 22 22 22
  6 neighbor lists, perpetual/occasional/extra = 5 1 0
  (1) pair lj/expand/twopiece, perpetual, skip from (6)
      attributes: half, newton on
      pair build: skip
      stencil: none
      bin: none
  (2) pair soft/shift, perpetual, skip from (6)
      attributes: half, newton on
      pair build: skip
      stencil: none
      bin: none
  (3) pair zero, perpetual, skip from (6)
      attributes: half, newton on
      pair build: skip
      stencil: none
      bin: none
  (4) pair morse, perpetual, skip from (6)
      attributes: half, newton on
      pair build: skip
      stencil: none
      bin: none
  (5) compute pair/local, occasional, copy from (6)
      attributes: half, newton on
      pair build: copy
      stencil: none
      bin: none
  (6) neighbor class addition, perpetual
      attributes: half, newton on
      pair build: half/bin/newton
      stencil: half/bin/3d/newton
      bin: standard
Setting up Verlet run ...
  Unit style    : lj
  Current step  : 1000
  Time step     : 0.001
Per MPI rank memory allocation (min/avg/max) = 9.126 | 9.126 | 9.126 Mbytes
Step Temp E_pair E_mol TotEng Press 
    1000            0 -0.000518497            0 -0.000518497 -4.876011e-08 
    1200            0 -0.000518497            0 -0.000518497 -4.876011e-08 
    1400            0 -0.000518497            0 -0.000518497 -4.876011e-08 
    1600            0 -0.000518497            0 -0.000518497 -4.876011e-08 
    1800            0 -0.000518497            0 -0.000518497 -4.876011e-08 
    2000            0 -0.000518497            0 -0.000518497 -4.876011e-08 
Loop time of 0.022683 on 1 procs for 1000 steps with 2 atoms

Performance: 3809019.978 tau/day, 44085.879 timesteps/s
0.0% CPU use with 1 MPI tasks x 1 OpenMP threads

MPI task timing breakdown:
Section |  min time  |  avg time  |  max time  |%varavg| %total
---------------------------------------------------------------
Pair    | 0.001898   | 0.001898   | 0.001898   |   0.0 |  8.37
Bond    | 0.001752   | 0.001752   | 0.001752   |   0.0 |  7.72
Neigh   | 0          | 0          | 0          |   0.0 |  0.00
Comm    | 0.003826   | 0.003826   | 0.003826   |   0.0 | 16.87
Output  | 0.006244   | 0.006244   | 0.006244   |   0.0 | 27.53
Modify  | 0.004157   | 0.004157   | 0.004157   |   0.0 | 18.33
Other   |            | 0.004806   |            |       | 21.19

Nlocal:    2 ave 2 max 2 min
Histogram: 1 0 0 0 0 0 0 0 0 0
Nghost:    0 ave 0 max 0 min
Histogram: 1 0 0 0 0 0 0 0 0 0
Neighs:    1 ave 1 max 1 min
Histogram: 1 0 0 0 0 0 0 0 0 0

Total # of neighbors = 1
Ave neighs/atom = 0.5
Ave special neighs/atom = 0
Neighbor list builds = 0
Dangerous builds = 0
Displacing atoms ...
Neighbor list info ...
  update every 1 steps, delay 10 steps, check yes
  max neighbors/atom: 2000, page size: 100000
  master list distance cutoff = 3.8
  ghost atom cutoff = 3.8
  binsize = 1.9, bins = 22 22 22
  6 neighbor lists, perpetual/occasional/extra = 5 1 0
  (1) pair lj/expand/twopiece, perpetual, skip from (6)
      attributes: half, newton on
      pair build: skip
      stencil: none
      bin: none
  (2) pair soft/shift, perpetual, skip from (6)
      attributes: half, newton on
      pair build: skip
      stencil: none
      bin: none
  (3) pair zero, perpetual, skip from (6)
      attributes: half, newton on
      pair build: skip
      stencil: none
      bin: none
  (4) pair morse, perpetual, skip from (6)
      attributes: half, newton on
      pair build: skip
      stencil: none
      bin: none
  (5) compute pair/local, occasional, copy from (6)
      attributes: half, newton on
      pair build: copy
      stencil: none
      bin: none
  (6) neighbor class addition, perpetual
      attributes: half, newton on
      pair build: half/bin/newton
      stencil: half/bin/3d/newton
      bin: standard
Setting up Verlet run ...
  Unit style    : lj
  Current step  : 2000
  Time step     : 0.001
Per MPI rank memory allocation (min/avg/max) = 9.126 | 9.126 | 9.126 Mbytes
Step Temp E_pair E_mol TotEng Press 
    2000            0 -0.00055105365            0 -0.00055105365 -5.1998378e-08 
    2200            0 -0.00055105365            0 -0.00055105365 -5.1998378e-08 
    2400            0 -0.00055105365            0 -0.00055105365 -5.1998378e-08 
    2600            0 -0.00055105365            0 -0.00055105365 -5.1998378e-08 
    2800            0 -0.00055105365            0 -0.00055105365 -5.1998378e-08 
    3000            0 -0.00055105365            0 -0.00055105365 -5.1998378e-08 
Loop time of 0.030635 on 1 procs for 1000 steps with 2 atoms

Performance: 2820303.577 tau/day, 32642.403 timesteps/s
0.0% CPU use with 1 MPI tasks x 1 OpenMP threads

MPI task timing breakdown:
Section |  min time  |  avg time  |  max time  |%varavg| %total
---------------------------------------------------------------
Pair    | 0.001904   | 0.001904   | 0.001904   |   0.0 |  6.22
Bond    | 0.001697   | 0.001697   | 0.001697   |   0.0 |  5.54
Neigh   | 0          | 0          | 0          |   0.0 |  0.00
Comm    | 0.008831   | 0.008831   | 0.008831   |   0.0 | 28.83
Output  | 0.003944   | 0.003944   | 0.003944   |   0.0 | 12.87
Modify  | 0.007494   | 0.007494   | 0.007494   |   0.0 | 24.46
Other   |            | 0.006765   |            |       | 22.08

Nlocal:    2 ave 2 max 2 min
Histogram: 1 0 0 0 0 0 0 0 0 0
Nghost:    0 ave 0 max 0 min
Histogram: 1 0 0 0 0 0 0 0 0 0
Neighs:    1 ave 1 max 1 min
Histogram: 1 0 0 0 0 0 0 0 0 0

Total # of neighbors = 1
Ave neighs/atom = 0.5
Ave special neighs/atom = 0
Neighbor list builds = 0
Dangerous builds = 0
Displacing atoms ...
Neighbor list info ...
  update every 1 steps, delay 10 steps, check yes
  max neighbors/atom: 2000, page size: 100000
  master list distance cutoff = 3.8
  ghost atom cutoff = 3.8
  binsize = 1.9, bins = 22 22 22
  6 neighbor lists, perpetual/occasional/extra = 5 1 0
  (1) pair lj/expand/twopiece, perpetual, skip from (6)
      attributes: half, newton on
      pair build: skip
      stencil: none
      bin: none
  (2) pair soft/shift, perpetual, skip from (6)
      attributes: half, newton on
      pair build: skip
      stencil: none
      bin: none
  (3) pair zero, perpetual, skip from (6)
      attributes: half, newton on
      pair build: skip
      stencil: none
      bin: none
  (4) pair morse, perpetual, skip from (6)
      attributes: half, newton on
      pair build: skip
      stencil: none
      bin: none
  (5) compute pair/local, occasional, copy from (6)
      attributes: half, newton on
      pair build: copy
      stencil: none
      bin: none
  (6) neighbor class addition, perpetual
      attributes: half, newton on
      pair build: half/bin/newton
      stencil: half/bin/3d/newton
      bin: standard
Setting up Verlet run ...
  Unit style    : lj
  Current step  : 3000
  Time step     : 0.001
Per MPI rank memory allocation (min/avg/max) = 9.126 | 9.126 | 9.126 Mbytes
Step Temp E_pair E_mol TotEng Press 
    3000            0 -0.00058601986            0 -0.00058601986 -5.5489474e-08 
    3200            0 -0.00058601986            0 -0.00058601986 -5.5489474e-08 
    3400            0 -0.00058601986            0 -0.00058601986 -5.5489474e-08 
    3600            0 -0.00058601986            0 -0.00058601986 -5.5489474e-08 
    3800            0 -0.00058601986            0 -0.00058601986 -5.5489474e-08 
    4000            0 -0.00058601986            0 -0.00058601986 -5.5489474e-08 
Loop time of 0.037439 on 1 procs for 1000 steps with 2 atoms

Performance: 2307753.948 tau/day, 26710.115 timesteps/s
0.0% CPU use with 1 MPI tasks x 1 OpenMP threads

MPI task timing breakdown:
Section |  min time  |  avg time  |  max time  |%varavg| %total
---------------------------------------------------------------
Pair    | 0.00538    | 0.00538    | 0.00538    |   0.0 | 14.37
Bond    | 0.001713   | 0.001713   | 0.001713   |   0.0 |  4.58
Neigh   | 0          | 0          | 0          |   0.0 |  0.00
Comm    | 0.003427   | 0.003427   | 0.003427   |   0.0 |  9.15
Output  | 0.003548   | 0.003548   | 0.003548   |   0.0 |  9.48
Modify  | 0.003106   | 0.003106   | 0.003106   |   0.0 |  8.30
Other   |            | 0.02027    |            |       | 54.13

Nlocal:    2 ave 2 max 2 min
Histogram: 1 0 0 0 0 0 0 0 0 0
Nghost:    0 ave 0 max 0 min
Histogram: 1 0 0 0 0 0 0 0 0 0
Neighs:    1 ave 1 max 1 min
Histogram: 1 0 0 0 0 0 0 0 0 0

Total # of neighbors = 1
Ave neighs/atom = 0.5
Ave special neighs/atom = 0
Neighbor list builds = 0
Dangerous builds = 0
Displacing atoms ...
Neighbor list info ...
  update every 1 steps, delay 10 steps, check yes
  max neighbors/atom: 2000, page size: 100000
  master list distance cutoff = 3.8
  ghost atom cutoff = 3.8
  binsize = 1.9, bins = 22 22 22
  6 neighbor lists, perpetual/occasional/extra = 5 1 0
  (1) pair lj/expand/twopiece, perpetual, skip from (6)
      attributes: half, newton on
      pair build: skip
      stencil: none
      bin: none
  (2) pair soft/shift, perpetual, skip from (6)
      attributes: half, newton on
      pair build: skip
      stencil: none
      bin: none
  (3) pair zero, perpetual, skip from (6)
      attributes: half, newton on
      pair build: skip
      stencil: none
      bin: none
  (4) pair morse, perpetual, skip from (6)
      attributes: half, newton on
      pair build: skip
      stencil: none
      bin: none
  (5) compute pair/local, occasional, copy from (6)
      attributes: half, newton on
      pair build: copy
      stencil: none
      bin: none
  (6) neighbor class addition, perpetual
      attributes: half, newton on
      pair build: half/bin/newton
      stencil: half/bin/3d/newton
      bin: standard
Setting up Verlet run ...
  Unit style    : lj
  Current step  : 4000
  Time step     : 0.001
Per MPI rank memory allocation (min/avg/max) = 9.126 | 9.126 | 9.126 Mbytes
Step Temp E_pair E_mol TotEng Press 
    4000            0 -0.00062360153            0 -0.00062360153 -5.9256131e-08 
    4200            0 -0.00062360153            0 -0.00062360153 -5.9256131e-08 
    4400            0 -0.00062360153            0 -0.00062360153 -5.9256131e-08 
    4600            0 -0.00062360153            0 -0.00062360153 -5.9256131e-08 
    4800            0 -0.00062360153            0 -0.00062360153 -5.9256131e-08 
    5000            0 -0.00062360153            0 -0.00062360153 -5.9256131e-08 
Loop time of 0.021394 on 1 procs for 1000 steps with 2 atoms

Performance: 4038515.475 tau/day, 46742.077 timesteps/s
73.0% CPU use with 1 MPI tasks x 1 OpenMP threads

MPI task timing breakdown:
Section |  min time  |  avg time  |  max time  |%varavg| %total
---------------------------------------------------------------
Pair    | 0.002265   | 0.002265   | 0.002265   |   0.0 | 10.59
Bond    | 0.002418   | 0.002418   | 0.002418   |   0.0 | 11.30
Neigh   | 0          | 0          | 0          |   0.0 |  0.00
Comm    | 0.00347    | 0.00347    | 0.00347    |   0.0 | 16.22
Output  | 0.004481   | 0.004481   | 0.004481   |   0.0 | 20.95
Modify  | 0.003304   | 0.003304   | 0.003304   |   0.0 | 15.44
Other   |            | 0.005456   |            |       | 25.50

Nlocal:    2 ave 2 max 2 min
Histogram: 1 0 0 0 0 0 0 0 0 0
Nghost:    0 ave 0 max 0 min
Histogram: 1 0 0 0 0 0 0 0 0 0
Neighs:    1 ave 1 max 1 min
Histogram: 1 0 0 0 0 0 0 0 0 0

Total # of neighbors = 1
Ave neighs/atom = 0.5
Ave special neighs/atom = 0
Neighbor list builds = 0
Dangerous builds = 0
Displacing atoms ...
Neighbor list info ...
  update every 1 steps, delay 10 steps, check yes
  max neighbors/atom: 2000, page size: 100000
  master list distance cutoff = 3.8
  ghost atom cutoff = 3.8
  binsize = 1.9, bins = 22 22 22
  6 neighbor lists, perpetual/occasional/extra = 5 1 0
  (1) pair lj/expand/twopiece, perpetual, skip from (6)
      attributes: half, newton on
      pair build: skip
      stencil: none
      bin: none
  (2) pair soft/shift, perpetual, skip from (6)
      attributes: half, newton on
      pair build: skip
      stencil: none
      bin: none
  (3) pair zero, perpetual, skip from (6)
      attributes: half, newton on
      pair build: skip
      stencil: none
      bin: none
  (4) pair morse, perpetual, skip from (6)
      attributes: half, newton on
      pair build: skip
      stencil: none
      bin: none
  (5) compute pair/local, occasional, copy from (6)
      attributes: half, newton on
      pair build: copy
      stencil: none
      bin: none
  (6) neighbor class addition, perpetual
      attributes: half, newton on
      pair build: half/bin/newton
      stencil: half/bin/3d/newton
      bin: standard
Setting up Verlet run ...
  Unit style    : lj
  Current step  : 5000
  Time step     : 0.001
Per MPI rank memory allocation (min/avg/max) = 9.126 | 9.126 | 9.126 Mbytes
Step Temp E_pair E_mol TotEng Press 
    5000            0 -0.00066402458            0 -0.00066402458 -6.3323405e-08 
    5200            0 -0.00066402458            0 -0.00066402458 -6.3323405e-08 
    5400            0 -0.00066402458            0 -0.00066402458 -6.3323405e-08 
    5600            0 -0.00066402458            0 -0.00066402458 -6.3323405e-08 
    5800            0 -0.00066402458            0 -0.00066402458 -6.3323405e-08 
    6000            0 -0.00066402458            0 -0.00066402458 -6.3323405e-08 
Loop time of 0.048455 on 1 procs for 1000 steps with 2 atoms

Performance: 1783097.718 tau/day, 20637.705 timesteps/s
0.0% CPU use with 1 MPI tasks x 1 OpenMP threads

MPI task timing breakdown:
Section |  min time  |  avg time  |  max time  |%varavg| %total
---------------------------------------------------------------
Pair    | 0.001791   | 0.001791   | 0.001791   |   0.0 |  3.70
Bond    | 0.001486   | 0.001486   | 0.001486   |   0.0 |  3.07
Neigh   | 0          | 0          | 0          |   0.0 |  0.00
Comm    | 0.003155   | 0.003155   | 0.003155   |   0.0 |  6.51
Output  | 0.006212   | 0.006212   | 0.006212   |   0.0 | 12.82
Modify  | 0.030657   | 0.030657   | 0.030657   |   0.0 | 63.27
Other   |            | 0.005154   |            |       | 10.64

Nlocal:    2 ave 2 max 2 min
Histogram: 1 0 0 0 0 0 0 0 0 0
Nghost:    0 ave 0 max 0 min
Histogram: 1 0 0 0 0 0 0 0 0 0
Neighs:    1 ave 1 max 1 min
Histogram: 1 0 0 0 0 0 0 0 0 0

Total # of neighbors = 1
Ave neighs/atom = 0.5
Ave special neighs/atom = 0
Neighbor list builds = 0
Dangerous builds = 0
Displacing atoms ...
Neighbor list info ...
  update every 1 steps, delay 10 steps, check yes
  max neighbors/atom: 2000, page size: 100000
  master list distance cutoff = 3.8
  ghost atom cutoff = 3.8
  binsize = 1.9, bins = 22 22 22
  6 neighbor lists, perpetual/occasional/extra = 5 1 0
  (1) pair lj/expand/twopiece, perpetual, skip from (6)
      attributes: half, newton on
      pair build: skip
      stencil: none
      bin: none
  (2) pair soft/shift, perpetual, skip from (6)
      attributes: half, newton on
      pair build: skip
      stencil: none
      bin: none
  (3) pair zero, perpetual, skip from (6)
      attributes: half, newton on
      pair build: skip
      stencil: none
      bin: none
  (4) pair morse, perpetual, skip from (6)
      attributes: half, newton on
      pair build: skip
      stencil: none
      bin: none
  (5) compute pair/local, occasional, copy from (6)
      attributes: half, newton on
      pair build: copy
      stencil: none
      bin: none
  (6) neighbor class addition, perpetual
      attributes: half, newton on
      pair build: half/bin/newton
      stencil: half/bin/3d/newton
      bin: standard
Setting up Verlet run ...
  Unit style    : lj
  Current step  : 6000
  Time step     : 0.001
Per MPI rank memory allocation (min/avg/max) = 9.126 | 9.126 | 9.126 Mbytes
Step Temp E_pair E_mol TotEng Press 
    6000            0 -0.00070753708            0 -0.00070753708 -6.771893e-08 
    6200            0 -0.00070753708            0 -0.00070753708 -6.771893e-08 
    6400            0 -0.00070753708            0 -0.00070753708 -6.771893e-08 
    6600            0 -0.00070753708            0 -0.00070753708 -6.771893e-08 
    6800            0 -0.00070753708            0 -0.00070753708 -6.771893e-08 
    7000            0 -0.00070753708            0 -0.00070753708 -6.771893e-08 
Loop time of 0.017342 on 1 procs for 1000 steps with 2 atoms

Performance: 4982124.312 tau/day, 57663.476 timesteps/s
90.1% CPU use with 1 MPI tasks x 1 OpenMP threads

MPI task timing breakdown:
Section |  min time  |  avg time  |  max time  |%varavg| %total
---------------------------------------------------------------
Pair    | 0.001933   | 0.001933   | 0.001933   |   0.0 | 11.15
Bond    | 0.001428   | 0.001428   | 0.001428   |   0.0 |  8.23
Neigh   | 0          | 0          | 0          |   0.0 |  0.00
Comm    | 0.002694   | 0.002694   | 0.002694   |   0.0 | 15.53
Output  | 0.004239   | 0.004239   | 0.004239   |   0.0 | 24.44
Modify  | 0.002706   | 0.002706   | 0.002706   |   0.0 | 15.60
Other   |            | 0.004342   |            |       | 25.04

Nlocal:    2 ave 2 max 2 min
Histogram: 1 0 0 0 0 0 0 0 0 0
Nghost:    0 ave 0 max 0 min
Histogram: 1 0 0 0 0 0 0 0 0 0
Neighs:    1 ave 1 max 1 min
Histogram: 1 0 0 0 0 0 0 0 0 0

Total # of neighbors = 1
Ave neighs/atom = 0.5
Ave special neighs/atom = 0
Neighbor list builds = 0
Dangerous builds = 0
Displacing atoms ...
Neighbor list info ...
  update every 1 steps, delay 10 steps, check yes
  max neighbors/atom: 2000, page size: 100000
  master list distance cutoff = 3.8
  ghost atom cutoff = 3.8
  binsize = 1.9, bins = 22 22 22
  6 neighbor lists, perpetual/occasional/extra = 5 1 0
  (1) pair lj/expand/twopiece, perpetual, skip from (6)
      attributes: half, newton on
      pair build: skip
      stencil: none
      bin: none
  (2) pair soft/shift, perpetual, skip from (6)
      attributes: half, newton on
      pair build: skip
      stencil: none
      bin: none
  (3) pair zero, perpetual, skip from (6)
      attributes: half, newton on
      pair build: skip
      stencil: none
      bin: none
  (4) pair morse, perpetual, skip from (6)
      attributes: half, newton on
      pair build: skip
      stencil: none
      bin: none
  (5) compute pair/local, occasional, copy from (6)
      attributes: half, newton on
      pair build: copy
      stencil: none
      bin: none
  (6) neighbor class addition, perpetual
      attributes: half, newton on
      pair build: half/bin/newton
      stencil: half/bin/3d/newton
      bin: standard
Setting up Verlet run ...
  Unit style    : lj
  Current step  : 7000
  Time step     : 0.001
Per MPI rank memory allocation (min/avg/max) = 9.126 | 9.126 | 9.126 Mbytes
Step Temp E_pair E_mol TotEng Press 
    7000            0 -0.00075441175            0 -0.00075441175 -7.2473223e-08 
    7200            0 -0.00075441175            0 -0.00075441175 -7.2473223e-08 
    7400            0 -0.00075441175            0 -0.00075441175 -7.2473223e-08 
    7600            0 -0.00075441175            0 -0.00075441175 -7.2473223e-08 
    7800            0 -0.00075441175            0 -0.00075441175 -7.2473223e-08 
    8000            0 -0.00075441175            0 -0.00075441175 -7.2473223e-08 
Loop time of 0.031122 on 1 procs for 1000 steps with 2 atoms

Performance: 2776171.196 tau/day, 32131.611 timesteps/s
0.0% CPU use with 1 MPI tasks x 1 OpenMP threads

MPI task timing breakdown:
Section |  min time  |  avg time  |  max time  |%varavg| %total
---------------------------------------------------------------
Pair    | 0.003142   | 0.003142   | 0.003142   |   0.0 | 10.10
Bond    | 0.001545   | 0.001545   | 0.001545   |   0.0 |  4.96
Neigh   | 0          | 0          | 0          |   0.0 |  0.00
Comm    | 0.002921   | 0.002921   | 0.002921   |   0.0 |  9.39
Output  | 0.007942   | 0.007942   | 0.007942   |   0.0 | 25.52
Modify  | 0.010746   | 0.010746   | 0.010746   |   0.0 | 34.53
Other   |            | 0.004826   |            |       | 15.51

Nlocal:    2 ave 2 max 2 min
Histogram: 1 0 0 0 0 0 0 0 0 0
Nghost:    0 ave 0 max 0 min
Histogram: 1 0 0 0 0 0 0 0 0 0
Neighs:    1 ave 1 max 1 min
Histogram: 1 0 0 0 0 0 0 0 0 0

Total # of neighbors = 1
Ave neighs/atom = 0.5
Ave special neighs/atom = 0
Neighbor list builds = 0
Dangerous builds = 0
Displacing atoms ...
Neighbor list info ...
  update every 1 steps, delay 10 steps, check yes
  max neighbors/atom: 2000, page size: 100000
  master list distance cutoff = 3.8
  ghost atom cutoff = 3.8
  binsize = 1.9, bins = 22 22 22
  6 neighbor lists, perpetual/occasional/extra = 5 1 0
  (1) pair lj/expand/twopiece, perpetual, skip from (6)
      attributes: half, newton on
      pair build: skip
      stencil: none
      bin: none
  (2) pair soft/shift, perpetual, skip from (6)
      attributes: half, newton on
      pair build: skip
      stencil: none
      bin: none
  (3) pair zero, perpetual, skip from (6)
      attributes: half, newton on
      pair build: skip
      stencil: none
      bin: none
  (4) pair morse, perpetual, skip from (6)
      attributes: half, newton on
      pair build: skip
      stencil: none
      bin: none
  (5) compute pair/local, occasional, copy from (6)
      attributes: half, newton on
      pair build: copy
      stencil: none
      bin: none
  (6) neighbor class addition, perpetual
      attributes: half, newton on
      pair build: half/bin/newton
      stencil: half/bin/3d/newton
      bin: standard
Setting up Verlet run ...
  Unit style    : lj
  Current step  : 8000
  Time step     : 0.001
Per MPI rank memory allocation (min/avg/max) = 9.126 | 9.126 | 9.126 Mbytes
Step Temp E_pair E_mol TotEng Press 
    8000            0 -0.00080494867            0 -0.00080494867 -7.762002e-08 
    8200            0 -0.00080494867            0 -0.00080494867 -7.762002e-08 
    8400            0 -0.00080494867            0 -0.00080494867 -7.762002e-08 
    8600            0 -0.00080494867            0 -0.00080494867 -7.762002e-08 
    8800            0 -0.00080494867            0 -0.00080494867 -7.762002e-08 
    9000            0 -0.00080494867            0 -0.00080494867 -7.762002e-08 
Loop time of 0.021755 on 1 procs for 1000 steps with 2 atoms

Performance: 3971500.795 tau/day, 45966.444 timesteps/s
0.0% CPU use with 1 MPI tasks x 1 OpenMP threads

MPI task timing breakdown:
Section |  min time  |  avg time  |  max time  |%varavg| %total
---------------------------------------------------------------
Pair    | 0.002997   | 0.002997   | 0.002997   |   0.0 | 13.78
Bond    | 0.001413   | 0.001413   | 0.001413   |   0.0 |  6.50
Neigh   | 0          | 0          | 0          |   0.0 |  0.00
Comm    | 0.00511    | 0.00511    | 0.00511    |   0.0 | 23.49
Output  | 0.003693   | 0.003693   | 0.003693   |   0.0 | 16.98
Modify  | 0.003218   | 0.003218   | 0.003218   |   0.0 | 14.79
Other   |            | 0.005324   |            |       | 24.47

Nlocal:    2 ave 2 max 2 min
Histogram: 1 0 0 0 0 0 0 0 0 0
Nghost:    0 ave 0 max 0 min
Histogram: 1 0 0 0 0 0 0 0 0 0
Neighs:    1 ave 1 max 1 min
Histogram: 1 0 0 0 0 0 0 0 0 0

Total # of neighbors = 1
Ave neighs/atom = 0.5
Ave special neighs/atom = 0
Neighbor list builds = 0
Dangerous builds = 0
Displacing atoms ...
Neighbor list info ...
  update every 1 steps, delay 10 steps, check yes
  max neighbors/atom: 2000, page size: 100000
  master list distance cutoff = 3.8
  ghost atom cutoff = 3.8
  binsize = 1.9, bins = 22 22 22
  6 neighbor lists, perpetual/occasional/extra = 5 1 0
  (1) pair lj/expand/twopiece, perpetual, skip from (6)
      attributes: half, newton on
      pair build: skip
      stencil: none
      bin: none
  (2) pair soft/shift, perpetual, skip from (6)
      attributes: half, newton on
      pair build: skip
      stencil: none
      bin: none
  (3) pair zero, perpetual, skip from (6)
      attributes: half, newton on
      pair build: skip
      stencil: none
      bin: none
  (4) pair morse, perpetual, skip from (6)
      attributes: half, newton on
      pair build: skip
      stencil: none
      bin: none
  (5) compute pair/local, occasional, copy from (6)
      attributes: half, newton on
      pair build: copy
      stencil: none
      bin: none
  (6) neighbor class addition, perpetual
      attributes: half, newton on
      pair build: half/bin/newton
      stencil: half/bin/3d/newton
      bin: standard
Setting up Verlet run ...
  Unit style    : lj
  Current step  : 9000
  Time step     : 0.001
Per MPI rank memory allocation (min/avg/max) = 9.126 | 9.126 | 9.126 Mbytes
Step Temp E_pair E_mol TotEng Press 
    9000            0 -0.00085947835            0 -0.00085947835 -8.3196651e-08 
    9200            0 -0.00085947835            0 -0.00085947835 -8.3196651e-08 
    9400            0 -0.00085947835            0 -0.00085947835 -8.3196651e-08 
    9600            0 -0.00085947835            0 -0.00085947835 -8.3196651e-08 
    9800            0 -0.00085947835            0 -0.00085947835 -8.3196651e-08 
   10000            0 -0.00085947835            0 -0.00085947835 -8.3196651e-08 
Loop time of 0.030897 on 1 procs for 1000 steps with 2 atoms

Performance: 2796388.000 tau/day, 32365.602 timesteps/s
0.0% CPU use with 1 MPI tasks x 1 OpenMP threads

MPI task timing breakdown:
Section |  min time  |  avg time  |  max time  |%varavg| %total
---------------------------------------------------------------
Pair    | 0.003268   | 0.003268   | 0.003268   |   0.0 | 10.58
Bond    | 0.002012   | 0.002012   | 0.002012   |   0.0 |  6.51
Neigh   | 0          | 0          | 0          |   0.0 |  0.00
Comm    | 0.002944   | 0.002944   | 0.002944   |   0.0 |  9.53
Output  | 0.009082   | 0.009082   | 0.009082   |   0.0 | 29.39
Modify  | 0.0055     | 0.0055     | 0.0055     |   0.0 | 17.80
Other   |            | 0.008091   |            |       | 26.19

Nlocal:    2 ave 2 max 2 min
Histogram: 1 0 0 0 0 0 0 0 0 0
Nghost:    0 ave 0 max 0 min
Histogram: 1 0 0 0 0 0 0 0 0 0
Neighs:    1 ave 1 max 1 min
Histogram: 1 0 0 0 0 0 0 0 0 0

Total # of neighbors = 1
Ave neighs/atom = 0.5
Ave special neighs/atom = 0
Neighbor list builds = 0
Dangerous builds = 0
Displacing atoms ...
Neighbor list info ...
  update every 1 steps, delay 10 steps, check yes
  max neighbors/atom: 2000, page size: 100000
  master list distance cutoff = 3.8
  ghost atom cutoff = 3.8
  binsize = 1.9, bins = 22 22 22
  6 neighbor lists, perpetual/occasional/extra = 5 1 0
  (1) pair lj/expand/twopiece, perpetual, skip from (6)
      attributes: half, newton on
      pair build: skip
      stencil: none
      bin: none
  (2) pair soft/shift, perpetual, skip from (6)
      attributes: half, newton on
      pair build: skip
      stencil: none
      bin: none
  (3) pair zero, perpetual, skip from (6)
      attributes: half, newton on
      pair build: skip
      stencil: none
      bin: none
  (4) pair morse, perpetual, skip from (6)
      attributes: half, newton on
      pair build: skip
      stencil: none
      bin: none
  (5) compute pair/local, occasional, copy from (6)
      attributes: half, newton on
      pair build: copy
      stencil: none
      bin: none
  (6) neighbor class addition, perpetual
      attributes: half, newton on
      pair build: half/bin/newton
      stencil: half/bin/3d/newton
      bin: standard
Setting up Verlet run ...
  Unit style    : lj
  Current step  : 10000
  Time step     : 0.001
Per MPI rank memory allocation (min/avg/max) = 9.126 | 9.126 | 9.126 Mbytes
Step Temp E_pair E_mol TotEng Press 
   10000            0 -0.00091836523            0 -0.00091836523 -8.9244473e-08 
   10200            0 -0.00091836523            0 -0.00091836523 -8.9244473e-08 
   10400            0 -0.00091836523            0 -0.00091836523 -8.9244473e-08 
   10600            0 -0.00091836523            0 -0.00091836523 -8.9244473e-08 
   10800            0 -0.00091836523            0 -0.00091836523 -8.9244473e-08 
   11000            0 -0.00091836523            0 -0.00091836523 -8.9244473e-08 
Loop time of 0.019149 on 1 procs for 1000 steps with 2 atoms

Performance: 4511984.960 tau/day, 52222.048 timesteps/s
81.6% CPU use with 1 MPI tasks x 1 OpenMP threads

MPI task timing breakdown:
Section |  min time  |  avg time  |  max time  |%varavg| %total
---------------------------------------------------------------
Pair    | 0.002578   | 0.002578   | 0.002578   |   0.0 | 13.46
Bond    | 0.001305   | 0.001305   | 0.001305   |   0.0 |  6.81
Neigh   | 0          | 0          | 0          |   0.0 |  0.00
Comm    | 0.002642   | 0.002642   | 0.002642   |   0.0 | 13.80
Output  | 0.003332   | 0.003332   | 0.003332   |   0.0 | 17.40
Modify  | 0.003546   | 0.003546   | 0.003546   |   0.0 | 18.52
Other   |            | 0.005746   |            |       | 30.01

Nlocal:    2 ave 2 max 2 min
Histogram: 1 0 0 0 0 0 0 0 0 0
Nghost:    0 ave 0 max 0 min
Histogram: 1 0 0 0 0 0 0 0 0 0
Neighs:    1 ave 1 max 1 min
Histogram: 1 0 0 0 0 0 0 0 0 0

Total # of neighbors = 1
Ave neighs/atom = 0.5
Ave special neighs/atom = 0
Neighbor list builds = 0
Dangerous builds = 0
Displacing atoms ...
Neighbor list info ...
  update every 1 steps, delay 10 steps, check yes
  max neighbors/atom: 2000, page size: 100000
  master list distance cutoff = 3.8
  ghost atom cutoff = 3.8
  binsize = 1.9, bins = 22 22 22
  6 neighbor lists, perpetual/occasional/extra = 5 1 0
  (1) pair lj/expand/twopiece, perpetual, skip from (6)
      attributes: half, newton on
      pair build: skip
      stencil: none
      bin: none
  (2) pair soft/shift, perpetual, skip from (6)
      attributes: half, newton on
      pair build: skip
      stencil: none
      bin: none
  (3) pair zero, perpetual, skip from (6)
      attributes: half, newton on
      pair build: skip
      stencil: none
      bin: none
  (4) pair morse, perpetual, skip from (6)
      attributes: half, newton on
      pair build: skip
      stencil: none
      bin: none
  (5) compute pair/local, occasional, copy from (6)
      attributes: half, newton on
      pair build: copy
      stencil: none
      bin: none
  (6) neighbor class addition, perpetual
      attributes: half, newton on
      pair build: half/bin/newton
      stencil: half/bin/3d/newton
      bin: standard
Setting up Verlet run ...
  Unit style    : lj
  Current step  : 11000
  Time step     : 0.001
Per MPI rank memory allocation (min/avg/max) = 9.126 | 9.126 | 9.126 Mbytes
Step Temp E_pair E_mol TotEng Press 
   11000            0 -0.00098201158            0 -0.00098201158 -9.5809355e-08 
   11200            0 -0.00098201158            0 -0.00098201158 -9.5809355e-08 
   11400            0 -0.00098201158            0 -0.00098201158 -9.5809355e-08 
   11600            0 -0.00098201158            0 -0.00098201158 -9.5809355e-08 
   11800            0 -0.00098201158            0 -0.00098201158 -9.5809355e-08 
   12000            0 -0.00098201158            0 -0.00098201158 -9.5809355e-08 
Loop time of 0.022281 on 1 procs for 1000 steps with 2 atoms

Performance: 3877743.372 tau/day, 44881.289 timesteps/s
0.0% CPU use with 1 MPI tasks x 1 OpenMP threads

MPI task timing breakdown:
Section |  min time  |  avg time  |  max time  |%varavg| %total
---------------------------------------------------------------
Pair    | 0.001928   | 0.001928   | 0.001928   |   0.0 |  8.65
Bond    | 0.004119   | 0.004119   | 0.004119   |   0.0 | 18.49
Neigh   | 0          | 0          | 0          |   0.0 |  0.00
Comm    | 0.003015   | 0.003015   | 0.003015   |   0.0 | 13.53
Output  | 0.003786   | 0.003786   | 0.003786   |   0.0 | 16.99
Modify  | 0.003353   | 0.003353   | 0.003353   |   0.0 | 15.05
Other   |            | 0.00608    |            |       | 27.29

Nlocal:    2 ave 2 max 2 min
Histogram: 1 0 0 0 0 0 0 0 0 0
Nghost:    0 ave 0 max 0 min
Histogram: 1 0 0 0 0 0 0 0 0 0
Neighs:    1 ave 1 max 1 min
Histogram: 1 0 0 0 0 0 0 0 0 0

Total # of neighbors = 1
Ave neighs/atom = 0.5
Ave special neighs/atom = 0
Neighbor list builds = 0
Dangerous builds = 0
Displacing atoms ...
Neighbor list info ...
  update every 1 steps, delay 10 steps, check yes
  max neighbors/atom: 2000, page size: 100000
  master list distance cutoff = 3.8
  ghost atom cutoff = 3.8
  binsize = 1.9, bins = 22 22 22
  6 neighbor lists, perpetual/occasional/extra = 5 1 0
  (1) pair lj/expand/twopiece, perpetual, skip from (6)
      attributes: half, newton on
      pair build: skip
      stencil: none
      bin: none
  (2) pair soft/shift, perpetual, skip from (6)
      attributes: half, newton on
      pair build: skip
      stencil: none
      bin: none
  (3) pair zero, perpetual, skip from (6)
      attributes: half, newton on
      pair build: skip
      stencil: none
      bin: none
  (4) pair morse, perpetual, skip from (6)
      attributes: half, newton on
      pair build: skip
      stencil: none
      bin: none
  (5) compute pair/local, occasional, copy from (6)
      attributes: half, newton on
      pair build: copy
      stencil: none
      bin: none
  (6) neighbor class addition, perpetual
      attributes: half, newton on
      pair build: half/bin/newton
      stencil: half/bin/3d/newton
      bin: standard
Setting up Verlet run ...
  Unit style    : lj
  Current step  : 12000
  Time step     : 0.001
Per MPI rank memory allocation (min/avg/max) = 9.126 | 9.126 | 9.126 Mbytes
Step Temp E_pair E_mol TotEng Press 
   12000            0 -0.0010508619            0 -0.0010508619 -1.0294223e-07 
   12200            0 -0.0010508619            0 -0.0010508619 -1.0294223e-07 
   12400            0 -0.0010508619            0 -0.0010508619 -1.0294223e-07 
   12600            0 -0.0010508619            0 -0.0010508619 -1.0294223e-07 
   12800            0 -0.0010508619            0 -0.0010508619 -1.0294223e-07 
   13000            0 -0.0010508619            0 -0.0010508619 -1.0294223e-07 
Loop time of 0.020478 on 1 procs for 1000 steps with 2 atoms

Performance: 4219162.029 tau/day, 48832.894 timesteps/s
76.3% CPU use with 1 MPI tasks x 1 OpenMP threads

MPI task timing breakdown:
Section |  min time  |  avg time  |  max time  |%varavg| %total
---------------------------------------------------------------
Pair    | 0.00192    | 0.00192    | 0.00192    |   0.0 |  9.38
Bond    | 0.001679   | 0.001679   | 0.001679   |   0.0 |  8.20
Neigh   | 0          | 0          | 0          |   0.0 |  0.00
Comm    | 0.002954   | 0.002954   | 0.002954   |   0.0 | 14.43
Output  | 0.005455   | 0.005455   | 0.005455   |   0.0 | 26.64
Modify  | 0.002795   | 0.002795   | 0.002795   |   0.0 | 13.65
Other   |            | 0.005675   |            |       | 27.71

Nlocal:    2 ave 2 max 2 min
Histogram: 1 0 0 0 0 0 0 0 0 0
Nghost:    0 ave 0 max 0 min
Histogram: 1 0 0 0 0 0 0 0 0 0
Neighs:    1 ave 1 max 1 min
Histogram: 1 0 0 0 0 0 0 0 0 0

Total # of neighbors = 1
Ave neighs/atom = 0.5
Ave special neighs/atom = 0
Neighbor list builds = 0
Dangerous builds = 0
Displacing atoms ...
Neighbor list info ...
  update every 1 steps, delay 10 steps, check yes
  max neighbors/atom: 2000, page size: 100000
  master list distance cutoff = 3.8
  ghost atom cutoff = 3.8
  binsize = 1.9, bins = 22 22 22
  6 neighbor lists, perpetual/occasional/extra = 5 1 0
  (1) pair lj/expand/twopiece, perpetual, skip from (6)
      attributes: half, newton on
      pair build: skip
      stencil: none
      bin: none
  (2) pair soft/shift, perpetual, skip from (6)
      attributes: half, newton on
      pair build: skip
      stencil: none
      bin: none
  (3) pair zero, perpetual, skip from (6)
      attributes: half, newton on
      pair build: skip
      stencil: none
      bin: none
  (4) pair morse, perpetual, skip from (6)
      attributes: half, newton on
      pair build: skip
      stencil: none
      bin: none
  (5) compute pair/local, occasional, copy from (6)
      attributes: half, newton on
      pair build: copy
      stencil: none
      bin: none
  (6) neighbor class addition, perpetual
      attributes: half, newton on
      pair build: half/bin/newton
      stencil: half/bin/3d/newton
      bin: standard
Setting up Verlet run ...
  Unit style    : lj
  Current step  : 13000
  Time step     : 0.001
Per MPI rank memory allocation (min/avg/max) = 9.126 | 9.126 | 9.126 Mbytes
Step Temp E_pair E_mol TotEng Press 
   13000            0 -0.0011254079            0 -0.0011254079 -1.1069973e-07 
   13200            0 -0.0011254079            0 -0.0011254079 -1.1069973e-07 
   13400            0 -0.0011254079            0 -0.0011254079 -1.1069973e-07 
   13600            0 -0.0011254079            0 -0.0011254079 -1.1069973e-07 
   13800            0 -0.0011254079            0 -0.0011254079 -1.1069973e-07 
   14000            0 -0.0011254079            0 -0.0011254079 -1.1069973e-07 
Loop time of 0.014666 on 1 procs for 1000 steps with 2 atoms

Performance: 5891176.882 tau/day, 68184.918 timesteps/s
0.0% CPU use with 1 MPI tasks x 1 OpenMP threads

MPI task timing breakdown:
Section |  min time  |  avg time  |  max time  |%varavg| %total
---------------------------------------------------------------
Pair    | 0.001454   | 0.001454   | 0.001454   |   0.0 |  9.91
Bond    | 0.001286   | 0.001286   | 0.001286   |   0.0 |  8.77
Neigh   | 0          | 0          | 0          |   0.0 |  0.00
Comm    | 0.00247    | 0.00247    | 0.00247    |   0.0 | 16.84
Output  | 0.003114   | 0.003114   | 0.003114   |   0.0 | 21.23
Modify  | 0.002344   | 0.002344   | 0.002344   |   0.0 | 15.98
Other   |            | 0.003998   |            |       | 27.26

Nlocal:    2 ave 2 max 2 min
Histogram: 1 0 0 0 0 0 0 0 0 0
Nghost:    0 ave 0 max 0 min
Histogram: 1 0 0 0 0 0 0 0 0 0
Neighs:    1 ave 1 max 1 min
Histogram: 1 0 0 0 0 0 0 0 0 0

Total # of neighbors = 1
Ave neighs/atom = 0.5
Ave special neighs/atom = 0
Neighbor list builds = 0
Dangerous builds = 0
Displacing atoms ...
Neighbor list info ...
  update every 1 steps, delay 10 steps, check yes
  max neighbors/atom: 2000, page size: 100000
  master list distance cutoff = 3.8
  ghost atom cutoff = 3.8
  binsize = 1.9, bins = 22 22 22
  6 neighbor lists, perpetual/occasional/extra = 5 1 0
  (1) pair lj/expand/twopiece, perpetual, skip from (6)
      attributes: half, newton on
      pair build: skip
      stencil: none
      bin: none
  (2) pair soft/shift, perpetual, skip from (6)
      attributes: half, newton on
      pair build: skip
      stencil: none
      bin: none
  (3) pair zero, perpetual, skip from (6)
      attributes: half, newton on
      pair build: skip
      stencil: none
      bin: none
  (4) pair morse, perpetual, skip from (6)
      attributes: half, newton on
      pair build: skip
      stencil: none
      bin: none
  (5) compute pair/local, occasional, copy from (6)
      attributes: half, newton on
      pair build: copy
      stencil: none
      bin: none
  (6) neighbor class addition, perpetual
      attributes: half, newton on
      pair build: half/bin/newton
      stencil: half/bin/3d/newton
      bin: standard
Setting up Verlet run ...
  Unit style    : lj
  Current step  : 14000
  Time step     : 0.001
Per MPI rank memory allocation (min/avg/max) = 9.126 | 9.126 | 9.126 Mbytes
Step Temp E_pair E_mol TotEng Press 
   14000            0 -0.001206194            0 -0.001206194 -1.1914487e-07 
   14200            0 -0.001206194            0 -0.001206194 -1.1914487e-07 
   14400            0 -0.001206194            0 -0.001206194 -1.1914487e-07 
   14600            0 -0.001206194            0 -0.001206194 -1.1914487e-07 
   14800            0 -0.001206194            0 -0.001206194 -1.1914487e-07 
   15000            0 -0.001206194            0 -0.001206194 -1.1914487e-07 
Loop time of 0.018589 on 1 procs for 1000 steps with 2 atoms

Performance: 4647910.044 tau/day, 53795.255 timesteps/s
0.0% CPU use with 1 MPI tasks x 1 OpenMP threads

MPI task timing breakdown:
Section |  min time  |  avg time  |  max time  |%varavg| %total
---------------------------------------------------------------
Pair    | 0.002001   | 0.002001   | 0.002001   |   0.0 | 10.76
Bond    | 0.001509   | 0.001509   | 0.001509   |   0.0 |  8.12
Neigh   | 0          | 0          | 0          |   0.0 |  0.00
Comm    | 0.003304   | 0.003304   | 0.003304   |   0.0 | 17.77
Output  | 0.004423   | 0.004423   | 0.004423   |   0.0 | 23.79
Modify  | 0.00294    | 0.00294    | 0.00294    |   0.0 | 15.82
Other   |            | 0.004412   |            |       | 23.73

Nlocal:    2 ave 2 max 2 min
Histogram: 1 0 0 0 0 0 0 0 0 0
Nghost:    0 ave 0 max 0 min
Histogram: 1 0 0 0 0 0 0 0 0 0
Neighs:    1 ave 1 max 1 min
Histogram: 1 0 0 0 0 0 0 0 0 0

Total # of neighbors = 1
Ave neighs/atom = 0.5
Ave special neighs/atom = 0
Neighbor list builds = 0
Dangerous builds = 0
Displacing atoms ...
Neighbor list info ...
  update every 1 steps, delay 10 steps, check yes
  max neighbors/atom: 2000, page size: 100000
  master list distance cutoff = 3.8
  ghost atom cutoff = 3.8
  binsize = 1.9, bins = 22 22 22
  6 neighbor lists, perpetual/occasional/extra = 5 1 0
  (1) pair lj/expand/twopiece, perpetual, skip from (6)
      attributes: half, newton on
      pair build: skip
      stencil: none
      bin: none
  (2) pair soft/shift, perpetual, skip from (6)
      attributes: half, newton on
      pair build: skip
      stencil: none
      bin: none
  (3) pair zero, perpetual, skip from (6)
      attributes: half, newton on
      pair build: skip
      stencil: none
      bin: none
  (4) pair morse, perpetual, skip from (6)
      attributes: half, newton on
      pair build: skip
      stencil: none
      bin: none
  (5) compute pair/local, occasional, copy from (6)
      attributes: half, newton on
      pair build: copy
      stencil: none
      bin: none
  (6) neighbor class addition, perpetual
      attributes: half, newton on
      pair build: half/bin/newton
      stencil: half/bin/3d/newton
      bin: standard
Setting up Verlet run ...
  Unit style    : lj
  Current step  : 15000
  Time step     : 0.001
Per MPI rank memory allocation (min/avg/max) = 9.126 | 9.126 | 9.126 Mbytes
Step Temp E_pair E_mol TotEng Press 
   15000            0 -0.0012938242            0 -0.0012938242 -1.2834789e-07 
   15200            0 -0.0012938242            0 -0.0012938242 -1.2834789e-07 
   15400            0 -0.0012938242            0 -0.0012938242 -1.2834789e-07 
   15600            0 -0.0012938242            0 -0.0012938242 -1.2834789e-07 
   15800            0 -0.0012938242            0 -0.0012938242 -1.2834789e-07 
   16000            0 -0.0012938242            0 -0.0012938242 -1.2834789e-07 
Loop time of 0.046262 on 1 procs for 1000 steps with 2 atoms

Performance: 1867623.534 tau/day, 21616.013 timesteps/s
33.8% CPU use with 1 MPI tasks x 1 OpenMP threads

MPI task timing breakdown:
Section |  min time  |  avg time  |  max time  |%varavg| %total
---------------------------------------------------------------
Pair    | 0.00367    | 0.00367    | 0.00367    |   0.0 |  7.93
Bond    | 0.003908   | 0.003908   | 0.003908   |   0.0 |  8.45
Neigh   | 0          | 0          | 0          |   0.0 |  0.00
Comm    | 0.00564    | 0.00564    | 0.00564    |   0.0 | 12.19
Output  | 0.012589   | 0.012589   | 0.012589   |   0.0 | 27.21
Modify  | 0.011548   | 0.011548   | 0.011548   |   0.0 | 24.96
Other   |            | 0.008907   |            |       | 19.25

Nlocal:    2 ave 2 max 2 min
Histogram: 1 0 0 0 0 0 0 0 0 0
Nghost:    0 ave 0 max 0 min
Histogram: 1 0 0 0 0 0 0 0 0 0
Neighs:    1 ave 1 max 1 min
Histogram: 1 0 0 0 0 0 0 0 0 0

Total # of neighbors = 1
Ave neighs/atom = 0.5
Ave special neighs/atom = 0
Neighbor list builds = 0
Dangerous builds = 0
Displacing atoms ...
Neighbor list info ...
  update every 1 steps, delay 10 steps, check yes
  max neighbors/atom: 2000, page size: 100000
  master list distance cutoff = 3.8
  ghost atom cutoff = 3.8
  binsize = 1.9, bins = 22 22 22
  6 neighbor lists, perpetual/occasional/extra = 5 1 0
  (1) pair lj/expand/twopiece, perpetual, skip from (6)
      attributes: half, newton on
      pair build: skip
      stencil: none
      bin: none
  (2) pair soft/shift, perpetual, skip from (6)
      attributes: half, newton on
      pair build: skip
      stencil: none
      bin: none
  (3) pair zero, perpetual, skip from (6)
      attributes: half, newton on
      pair build: skip
      stencil: none
      bin: none
  (4) pair morse, perpetual, skip from (6)
      attributes: half, newton on
      pair build: skip
      stencil: none
      bin: none
  (5) compute pair/local, occasional, copy from (6)
      attributes: half, newton on
      pair build: copy
      stencil: none
      bin: none
  (6) neighbor class addition, perpetual
      attributes: half, newton on
      pair build: half/bin/newton
      stencil: half/bin/3d/newton
      bin: standard
Setting up Verlet run ...
  Unit style    : lj
  Current step  : 16000
  Time step     : 0.001
Per MPI rank memory allocation (min/avg/max) = 9.126 | 9.126 | 9.126 Mbytes
Step Temp E_pair E_mol TotEng Press 
   16000            0 -0.0013889685            0 -0.0013889685 -1.3838716e-07 
   16200            0 -0.0013889685            0 -0.0013889685 -1.3838716e-07 
   16400            0 -0.0013889685            0 -0.0013889685 -1.3838716e-07 
   16600            0 -0.0013889685            0 -0.0013889685 -1.3838716e-07 
   16800            0 -0.0013889685            0 -0.0013889685 -1.3838716e-07 
   17000            0 -0.0013889685            0 -0.0013889685 -1.3838716e-07 
Loop time of 0.018431 on 1 procs for 1000 steps with 2 atoms

Performance: 4687754.326 tau/day, 54256.416 timesteps/s
0.0% CPU use with 1 MPI tasks x 1 OpenMP threads

MPI task timing breakdown:
Section |  min time  |  avg time  |  max time  |%varavg| %total
---------------------------------------------------------------
Pair    | 0.002582   | 0.002582   | 0.002582   |   0.0 | 14.01
Bond    | 0.00121    | 0.00121    | 0.00121    |   0.0 |  6.57
Neigh   | 0          | 0          | 0          |   0.0 |  0.00
Comm    | 0.00351    | 0.00351    | 0.00351    |   0.0 | 19.04
Output  | 0.003595   | 0.003595   | 0.003595   |   0.0 | 19.51
Modify  | 0.003651   | 0.003651   | 0.003651   |   0.0 | 19.81
Other   |            | 0.003883   |            |       | 21.07

Nlocal:    2 ave 2 max 2 min
Histogram: 1 0 0 0 0 0 0 0 0 0
Nghost:    0 ave 0 max 0 min
Histogram: 1 0 0 0 0 0 0 0 0 0
Neighs:    1 ave 1 max 1 min
Histogram: 1 0 0 0 0 0 0 0 0 0

Total # of neighbors = 1
Ave neighs/atom = 0.5
Ave special neighs/atom = 0
Neighbor list builds = 0
Dangerous builds = 0
Displacing atoms ...
Neighbor list info ...
  update every 1 steps, delay 10 steps, check yes
  max neighbors/atom: 2000, page size: 100000
  master list distance cutoff = 3.8
  ghost atom cutoff = 3.8
  binsize = 1.9, bins = 22 22 22
  6 neighbor lists, perpetual/occasional/extra = 5 1 0
  (1) pair lj/expand/twopiece, perpetual, skip from (6)
      attributes: half, newton on
      pair build: skip
      stencil: none
      bin: none
  (2) pair soft/shift, perpetual, skip from (6)
      attributes: half, newton on
      pair build: skip
      stencil: none
      bin: none
  (3) pair zero, perpetual, skip from (6)
      attributes: half, newton on
      pair build: skip
      stencil: none
      bin: none
  (4) pair morse, perpetual, skip from (6)
      attributes: half, newton on
      pair build: skip
      stencil: none
      bin: none
  (5) compute pair/local, occasional, copy from (6)
      attributes: half, newton on
      pair build: copy
      stencil: none
      bin: none
  (6) neighbor class addition, perpetual
      attributes: half, newton on
      pair build: half/bin/newton
      stencil: half/bin/3d/newton
      bin: standard
Setting up Verlet run ...
  Unit style    : lj
  Current step  : 17000
  Time step     : 0.001
Per MPI rank memory allocation (min/avg/max) = 9.126 | 9.126 | 9.126 Mbytes
Step Temp E_pair E_mol TotEng Press 
   17000            0 -0.0014923719            0 -0.0014923719 -1.4935025e-07 
   17200            0 -0.0014923719            0 -0.0014923719 -1.4935025e-07 
   17400            0 -0.0014923719            0 -0.0014923719 -1.4935025e-07 
   17600            0 -0.0014923719            0 -0.0014923719 -1.4935025e-07 
   17800            0 -0.0014923719            0 -0.0014923719 -1.4935025e-07 
   18000            0 -0.0014923719            0 -0.0014923719 -1.4935025e-07 
Loop time of 0.019017 on 1 procs for 1000 steps with 2 atoms

Performance: 4543303.350 tau/day, 52584.530 timesteps/s
82.2% CPU use with 1 MPI tasks x 1 OpenMP threads

MPI task timing breakdown:
Section |  min time  |  avg time  |  max time  |%varavg| %total
---------------------------------------------------------------
Pair    | 0.002028   | 0.002028   | 0.002028   |   0.0 | 10.66
Bond    | 0.001305   | 0.001305   | 0.001305   |   0.0 |  6.86
Neigh   | 0          | 0          | 0          |   0.0 |  0.00
Comm    | 0.003383   | 0.003383   | 0.003383   |   0.0 | 17.79
Output  | 0.004398   | 0.004398   | 0.004398   |   0.0 | 23.13
Modify  | 0.003631   | 0.003631   | 0.003631   |   0.0 | 19.09
Other   |            | 0.004272   |            |       | 22.46

Nlocal:    2 ave 2 max 2 min
Histogram: 1 0 0 0 0 0 0 0 0 0
Nghost:    0 ave 0 max 0 min
Histogram: 1 0 0 0 0 0 0 0 0 0
Neighs:    1 ave 1 max 1 min
Histogram: 1 0 0 0 0 0 0 0 0 0

Total # of neighbors = 1
Ave neighs/atom = 0.5
Ave special neighs/atom = 0
Neighbor list builds = 0
Dangerous builds = 0
Displacing atoms ...
Neighbor list info ...
  update every 1 steps, delay 10 steps, check yes
  max neighbors/atom: 2000, page size: 100000
  master list distance cutoff = 3.8
  ghost atom cutoff = 3.8
  binsize = 1.9, bins = 22 22 22
  6 neighbor lists, perpetual/occasional/extra = 5 1 0
  (1) pair lj/expand/twopiece, perpetual, skip from (6)
      attributes: half, newton on
      pair build: skip
      stencil: none
      bin: none
  (2) pair soft/shift, perpetual, skip from (6)
      attributes: half, newton on
      pair build: skip
      stencil: none
      bin: none
  (3) pair zero, perpetual, skip from (6)
      attributes: half, newton on
      pair build: skip
      stencil: none
      bin: none
  (4) pair morse, perpetual, skip from (6)
      attributes: half, newton on
      pair build: skip
      stencil: none
      bin: none
  (5) compute pair/local, occasional, copy from (6)
      attributes: half, newton on
      pair build: copy
      stencil: none
      bin: none
  (6) neighbor class addition, perpetual
      attributes: half, newton on
      pair build: half/bin/newton
      stencil: half/bin/3d/newton
      bin: standard
Setting up Verlet run ...
  Unit style    : lj
  Current step  : 18000
  Time step     : 0.001
Per MPI rank memory allocation (min/avg/max) = 9.126 | 9.126 | 9.126 Mbytes
Step Temp E_pair E_mol TotEng Press 
   18000            0 -0.0016048632            0 -0.0016048632 -1.6133512e-07 
   18200            0 -0.0016048632            0 -0.0016048632 -1.6133512e-07 
   18400            0 -0.0016048632            0 -0.0016048632 -1.6133512e-07 
   18600            0 -0.0016048632            0 -0.0016048632 -1.6133512e-07 
   18800            0 -0.0016048632            0 -0.0016048632 -1.6133512e-07 
   19000            0 -0.0016048632            0 -0.0016048632 -1.6133512e-07 
Loop time of 0.016161 on 1 procs for 1000 steps with 2 atoms

Performance: 5346203.841 tau/day, 61877.359 timesteps/s
0.0% CPU use with 1 MPI tasks x 1 OpenMP threads

MPI task timing breakdown:
Section |  min time  |  avg time  |  max time  |%varavg| %total
---------------------------------------------------------------
Pair    | 0.001518   | 0.001518   | 0.001518   |   0.0 |  9.39
Bond    | 0.001287   | 0.001287   | 0.001287   |   0.0 |  7.96
Neigh   | 0          | 0          | 0          |   0.0 |  0.00
Comm    | 0.002371   | 0.002371   | 0.002371   |   0.0 | 14.67
Output  | 0.00258    | 0.00258    | 0.00258    |   0.0 | 15.96
Modify  | 0.003907   | 0.003907   | 0.003907   |   0.0 | 24.18
Other   |            | 0.004498   |            |       | 27.83

Nlocal:    2 ave 2 max 2 min
Histogram: 1 0 0 0 0 0 0 0 0 0
Nghost:    0 ave 0 max 0 min
Histogram: 1 0 0 0 0 0 0 0 0 0
Neighs:    1 ave 1 max 1 min
Histogram: 1 0 0 0 0 0 0 0 0 0

Total # of neighbors = 1
Ave neighs/atom = 0.5
Ave special neighs/atom = 0
Neighbor list builds = 0
Dangerous builds = 0
Displacing atoms ...
Neighbor list info ...
  update every 1 steps, delay 10 steps, check yes
  max neighbors/atom: 2000, page size: 100000
  master list distance cutoff = 3.8
  ghost atom cutoff = 3.8
  binsize = 1.9, bins = 22 22 22
  6 neighbor lists, perpetual/occasional/extra = 5 1 0
  (1) pair lj/expand/twopiece, perpetual, skip from (6)
      attributes: half, newton on
      pair build: skip
      stencil: none
      bin: none
  (2) pair soft/shift, perpetual, skip from (6)
      attributes: half, newton on
      pair build: skip
      stencil: none
      bin: none
  (3) pair zero, perpetual, skip from (6)
      attributes: half, newton on
      pair build: skip
      stencil: none
      bin: none
  (4) pair morse, perpetual, skip from (6)
      attributes: half, newton on
      pair build: skip
      stencil: none
      bin: none
  (5) compute pair/local, occasional, copy from (6)
      attributes: half, newton on
      pair build: copy
      stencil: none
      bin: none
  (6) neighbor class addition, perpetual
      attributes: half, newton on
      pair build: half/bin/newton
      stencil: half/bin/3d/newton
      bin: standard
Setting up Verlet run ...
  Unit style    : lj
  Current step  : 19000
  Time step     : 0.001
Per MPI rank memory allocation (min/avg/max) = 9.126 | 9.126 | 9.126 Mbytes
Step Temp E_pair E_mol TotEng Press 
   19000            0 -0.001727366            0 -0.001727366 -1.7445151e-07 
   19200            0 -0.001727366            0 -0.001727366 -1.7445151e-07 
   19400            0 -0.001727366            0 -0.001727366 -1.7445151e-07 
   19600            0 -0.001727366            0 -0.001727366 -1.7445151e-07 
   19800            0 -0.001727366            0 -0.001727366 -1.7445151e-07 
   20000            0 -0.001727366            0 -0.001727366 -1.7445151e-07 
Loop time of 0.015435 on 1 procs for 1000 steps with 2 atoms

Performance: 5597667.635 tau/day, 64787.820 timesteps/s
0.0% CPU use with 1 MPI tasks x 1 OpenMP threads

MPI task timing breakdown:
Section |  min time  |  avg time  |  max time  |%varavg| %total
---------------------------------------------------------------
Pair    | 0.001465   | 0.001465   | 0.001465   |   0.0 |  9.49
Bond    | 0.001216   | 0.001216   | 0.001216   |   0.0 |  7.88
Neigh   | 0          | 0          | 0          |   0.0 |  0.00
Comm    | 0.002351   | 0.002351   | 0.002351   |   0.0 | 15.23
Output  | 0.002247   | 0.002247   | 0.002247   |   0.0 | 14.56
Modify  | 0.004422   | 0.004422   | 0.004422   |   0.0 | 28.65
Other   |            | 0.003734   |            |       | 24.19

Nlocal:    2 ave 2 max 2 min
Histogram: 1 0 0 0 0 0 0 0 0 0
Nghost:    0 ave 0 max 0 min
Histogram: 1 0 0 0 0 0 0 0 0 0
Neighs:    1 ave 1 max 1 min
Histogram: 1 0 0 0 0 0 0 0 0 0

Total # of neighbors = 1
Ave neighs/atom = 0.5
Ave special neighs/atom = 0
Neighbor list builds = 0
Dangerous builds = 0
Displacing atoms ...
Neighbor list info ...
  update every 1 steps, delay 10 steps, check yes
  max neighbors/atom: 2000, page size: 100000
  master list distance cutoff = 3.8
  ghost atom cutoff = 3.8
  binsize = 1.9, bins = 22 22 22
  6 neighbor lists, perpetual/occasional/extra = 5 1 0
  (1) pair lj/expand/twopiece, perpetual, skip from (6)
      attributes: half, newton on
      pair build: skip
      stencil: none
      bin: none
  (2) pair soft/shift, perpetual, skip from (6)
      attributes: half, newton on
      pair build: skip
      stencil: none
      bin: none
  (3) pair zero, perpetual, skip from (6)
      attributes: half, newton on
      pair build: skip
      stencil: none
      bin: none
  (4) pair morse, perpetual, skip from (6)
      attributes: half, newton on
      pair build: skip
      stencil: none
      bin: none
  (5) compute pair/local, occasional, copy from (6)
      attributes: half, newton on
      pair build: copy
      stencil: none
      bin: none
  (6) neighbor class addition, perpetual
      attributes: half, newton on
      pair build: half/bin/newton
      stencil: half/bin/3d/newton
      bin: standard
Setting up Verlet run ...
  Unit style    : lj
  Current step  : 20000
  Time step     : 0.001
Per MPI rank memory allocation (min/avg/max) = 9.126 | 9.126 | 9.126 Mbytes
Step Temp E_pair E_mol TotEng Press 
   20000            0 -0.0018609104            0 -0.0018609104 -1.8882253e-07 
   20200            0 -0.0018609104            0 -0.0018609104 -1.8882253e-07 
   20400            0 -0.0018609104            0 -0.0018609104 -1.8882253e-07 
   20600            0 -0.0018609104            0 -0.0018609104 -1.8882253e-07 
   20800            0 -0.0018609104            0 -0.0018609104 -1.8882253e-07 
   21000            0 -0.0018609104            0 -0.0018609104 -1.8882253e-07 
Loop time of 0.01735 on 1 procs for 1000 steps with 2 atoms

Performance: 4979827.095 tau/day, 57636.888 timesteps/s
90.1% CPU use with 1 MPI tasks x 1 OpenMP threads

MPI task timing breakdown:
Section |  min time  |  avg time  |  max time  |%varavg| %total
---------------------------------------------------------------
Pair    | 0.002247   | 0.002247   | 0.002247   |   0.0 | 12.95
Bond    | 0.001365   | 0.001365   | 0.001365   |   0.0 |  7.87
Neigh   | 0          | 0          | 0          |   0.0 |  0.00
Comm    | 0.003122   | 0.003122   | 0.003122   |   0.0 | 17.99
Output  | 0.002973   | 0.002973   | 0.002973   |   0.0 | 17.14
Modify  | 0.003553   | 0.003553   | 0.003553   |   0.0 | 20.48
Other   |            | 0.00409    |            |       | 23.57

Nlocal:    2 ave 2 max 2 min
Histogram: 1 0 0 0 0 0 0 0 0 0
Nghost:    0 ave 0 max 0 min
Histogram: 1 0 0 0 0 0 0 0 0 0
Neighs:    1 ave 1 max 1 min
Histogram: 1 0 0 0 0 0 0 0 0 0

Total # of neighbors = 1
Ave neighs/atom = 0.5
Ave special neighs/atom = 0
Neighbor list builds = 0
Dangerous builds = 0
Displacing atoms ...
Neighbor list info ...
  update every 1 steps, delay 10 steps, check yes
  max neighbors/atom: 2000, page size: 100000
  master list distance cutoff = 3.8
  ghost atom cutoff = 3.8
  binsize = 1.9, bins = 22 22 22
  6 neighbor lists, perpetual/occasional/extra = 5 1 0
  (1) pair lj/expand/twopiece, perpetual, skip from (6)
      attributes: half, newton on
      pair build: skip
      stencil: none
      bin: none
  (2) pair soft/shift, perpetual, skip from (6)
      attributes: half, newton on
      pair build: skip
      stencil: none
      bin: none
  (3) pair zero, perpetual, skip from (6)
      attributes: half, newton on
      pair build: skip
      stencil: none
      bin: none
  (4) pair morse, perpetual, skip from (6)
      attributes: half, newton on
      pair build: skip
      stencil: none
      bin: none
  (5) compute pair/local, occasional, copy from (6)
      attributes: half, newton on
      pair build: copy
      stencil: none
      bin: none
  (6) neighbor class addition, perpetual
      attributes: half, newton on
      pair build: half/bin/newton
      stencil: half/bin/3d/newton
      bin: standard
Setting up Verlet run ...
  Unit style    : lj
  Current step  : 21000
  Time step     : 0.001
Per MPI rank memory allocation (min/avg/max) = 9.126 | 9.126 | 9.126 Mbytes
Step Temp E_pair E_mol TotEng Press 
   21000            0 -0.0020066476            0 -0.0020066476 -2.0458647e-07 
   21200            0 -0.0020066476            0 -0.0020066476 -2.0458647e-07 
   21400            0 -0.0020066476            0 -0.0020066476 -2.0458647e-07 
   21600            0 -0.0020066476            0 -0.0020066476 -2.0458647e-07 
   21800            0 -0.0020066476            0 -0.0020066476 -2.0458647e-07 
   22000            0 -0.0020066476            0 -0.0020066476 -2.0458647e-07 
Loop time of 0.016999 on 1 procs for 1000 steps with 2 atoms

Performance: 5082651.925 tau/day, 58826.990 timesteps/s
0.0% CPU use with 1 MPI tasks x 1 OpenMP threads

MPI task timing breakdown:
Section |  min time  |  avg time  |  max time  |%varavg| %total
---------------------------------------------------------------
Pair    | 0.001654   | 0.001654   | 0.001654   |   0.0 |  9.73
Bond    | 0.001381   | 0.001381   | 0.001381   |   0.0 |  8.12
Neigh   | 0          | 0          | 0          |   0.0 |  0.00
Comm    | 0.002774   | 0.002774   | 0.002774   |   0.0 | 16.32
Output  | 0.004212   | 0.004212   | 0.004212   |   0.0 | 24.78
Modify  | 0.002614   | 0.002614   | 0.002614   |   0.0 | 15.38
Other   |            | 0.004364   |            |       | 25.67

Nlocal:    2 ave 2 max 2 min
Histogram: 1 0 0 0 0 0 0 0 0 0
Nghost:    0 ave 0 max 0 min
Histogram: 1 0 0 0 0 0 0 0 0 0
Neighs:    1 ave 1 max 1 min
Histogram: 1 0 0 0 0 0 0 0 0 0

Total # of neighbors = 1
Ave neighs/atom = 0.5
Ave special neighs/atom = 0
Neighbor list builds = 0
Dangerous builds = 0
Displacing atoms ...
Neighbor list info ...
  update every 1 steps, delay 10 steps, check yes
  max neighbors/atom: 2000, page size: 100000
  master list distance cutoff = 3.8
  ghost atom cutoff = 3.8
  binsize = 1.9, bins = 22 22 22
  6 neighbor lists, perpetual/occasional/extra = 5 1 0
  (1) pair lj/expand/twopiece, perpetual, skip from (6)
      attributes: half, newton on
      pair build: skip
      stencil: none
      bin: none
  (2) pair soft/shift, perpetual, skip from (6)
      attributes: half, newton on
      pair build: skip
      stencil: none
      bin: none
  (3) pair zero, perpetual, skip from (6)
      attributes: half, newton on
      pair build: skip
      stencil: none
      bin: none
  (4) pair morse, perpetual, skip from (6)
      attributes: half, newton on
      pair build: skip
      stencil: none
      bin: none
  (5) compute pair/local, occasional, copy from (6)
      attributes: half, newton on
      pair build: copy
      stencil: none
      bin: none
  (6) neighbor class addition, perpetual
      attributes: half, newton on
      pair build: half/bin/newton
      stencil: half/bin/3d/newton
      bin: standard
Setting up Verlet run ...
  Unit style    : lj
  Current step  : 22000
  Time step     : 0.001
Per MPI rank memory allocation (min/avg/max) = 9.126 | 9.126 | 9.126 Mbytes
Step Temp E_pair E_mol TotEng Press 
   22000            0 -0.0021658649            0 -0.0021658649 -2.218989e-07 
   22200            0 -0.0021658649            0 -0.0021658649 -2.218989e-07 
   22400            0 -0.0021658649            0 -0.0021658649 -2.218989e-07 
   22600            0 -0.0021658649            0 -0.0021658649 -2.218989e-07 
   22800            0 -0.0021658649            0 -0.0021658649 -2.218989e-07 
   23000            0 -0.0021658649            0 -0.0021658649 -2.218989e-07 
Loop time of 0.021385 on 1 procs for 1000 steps with 2 atoms

Performance: 4040215.110 tau/day, 46761.749 timesteps/s
0.0% CPU use with 1 MPI tasks x 1 OpenMP threads

MPI task timing breakdown:
Section |  min time  |  avg time  |  max time  |%varavg| %total
---------------------------------------------------------------
Pair    | 0.002178   | 0.002178   | 0.002178   |   0.0 | 10.18
Bond    | 0.001583   | 0.001583   | 0.001583   |   0.0 |  7.40
Neigh   | 0          | 0          | 0          |   0.0 |  0.00
Comm    | 0.002888   | 0.002888   | 0.002888   |   0.0 | 13.50
Output  | 0.005511   | 0.005511   | 0.005511   |   0.0 | 25.77
Modify  | 0.003208   | 0.003208   | 0.003208   |   0.0 | 15.00
Other   |            | 0.006017   |            |       | 28.14

Nlocal:    2 ave 2 max 2 min
Histogram: 1 0 0 0 0 0 0 0 0 0
Nghost:    0 ave 0 max 0 min
Histogram: 1 0 0 0 0 0 0 0 0 0
Neighs:    1 ave 1 max 1 min
Histogram: 1 0 0 0 0 0 0 0 0 0

Total # of neighbors = 1
Ave neighs/atom = 0.5
Ave special neighs/atom = 0
Neighbor list builds = 0
Dangerous builds = 0
Displacing atoms ...
Neighbor list info ...
  update every 1 steps, delay 10 steps, check yes
  max neighbors/atom: 2000, page size: 100000
  master list distance cutoff = 3.8
  ghost atom cutoff = 3.8
  binsize = 1.9, bins = 22 22 22
  6 neighbor lists, perpetual/occasional/extra = 5 1 0
  (1) pair lj/expand/twopiece, perpetual, skip from (6)
      attributes: half, newton on
      pair build: skip
      stencil: none
      bin: none
  (2) pair soft/shift, perpetual, skip from (6)
      attributes: half, newton on
      pair build: skip
      stencil: none
      bin: none
  (3) pair zero, perpetual, skip from (6)
      attributes: half, newton on
      pair build: skip
      stencil: none
      bin: none
  (4) pair morse, perpetual, skip from (6)
      attributes: half, newton on
      pair build: skip
      stencil: none
      bin: none
  (5) compute pair/local, occasional, copy from (6)
      attributes: half, newton on
      pair build: copy
      stencil: none
      bin: none
  (6) neighbor class addition, perpetual
      attributes: half, newton on
      pair build: half/bin/newton
      stencil: half/bin/3d/newton
      bin: standard
Setting up Verlet run ...
  Unit style    : lj
  Current step  : 23000
  Time step     : 0.001
Per MPI rank memory allocation (min/avg/max) = 9.126 | 9.126 | 9.126 Mbytes
Step Temp E_pair E_mol TotEng Press 
   23000            0 -0.0023400044            0 -0.0023400044 -2.409351e-07 
   23200            0 -0.0023400044            0 -0.0023400044 -2.409351e-07 
   23400            0 -0.0023400044            0 -0.0023400044 -2.409351e-07 
   23600            0 -0.0023400044            0 -0.0023400044 -2.409351e-07 
   23800            0 -0.0023400044            0 -0.0023400044 -2.409351e-07 
   24000            0 -0.0023400044            0 -0.0023400044 -2.409351e-07 
Loop time of 0.022126 on 1 procs for 1000 steps with 2 atoms

Performance: 3904908.248 tau/day, 45195.697 timesteps/s
70.6% CPU use with 1 MPI tasks x 1 OpenMP threads

MPI task timing breakdown:
Section |  min time  |  avg time  |  max time  |%varavg| %total
---------------------------------------------------------------
Pair    | 0.00204    | 0.00204    | 0.00204    |   0.0 |  9.22
Bond    | 0.002191   | 0.002191   | 0.002191   |   0.0 |  9.90
Neigh   | 0          | 0          | 0          |   0.0 |  0.00
Comm    | 0.004224   | 0.004224   | 0.004224   |   0.0 | 19.09
Output  | 0.005462   | 0.005462   | 0.005462   |   0.0 | 24.69
Modify  | 0.002776   | 0.002776   | 0.002776   |   0.0 | 12.55
Other   |            | 0.005433   |            |       | 24.55

Nlocal:    2 ave 2 max 2 min
Histogram: 1 0 0 0 0 0 0 0 0 0
Nghost:    0 ave 0 max 0 min
Histogram: 1 0 0 0 0 0 0 0 0 0
Neighs:    1 ave 1 max 1 min
Histogram: 1 0 0 0 0 0 0 0 0 0

Total # of neighbors = 1
Ave neighs/atom = 0.5
Ave special neighs/atom = 0
Neighbor list builds = 0
Dangerous builds = 0
Displacing atoms ...
Neighbor list info ...
  update every 1 steps, delay 10 steps, check yes
  max neighbors/atom: 2000, page size: 100000
  master list distance cutoff = 3.8
  ghost atom cutoff = 3.8
  binsize = 1.9, bins = 22 22 22
  6 neighbor lists, perpetual/occasional/extra = 5 1 0
  (1) pair lj/expand/twopiece, perpetual, skip from (6)
      attributes: half, newton on
      pair build: skip
      stencil: none
      bin: none
  (2) pair soft/shift, perpetual, skip from (6)
      attributes: half, newton on
      pair build: skip
      stencil: none
      bin: none
  (3) pair zero, perpetual, skip from (6)
      attributes: half, newton on
      pair build: skip
      stencil: none
      bin: none
  (4) pair morse, perpetual, skip from (6)
      attributes: half, newton on
      pair build: skip
      stencil: none
      bin: none
  (5) compute pair/local, occasional, copy from (6)
      attributes: half, newton on
      pair build: copy
      stencil: none
      bin: none
  (6) neighbor class addition, perpetual
      attributes: half, newton on
      pair build: half/bin/newton
      stencil: half/bin/3d/newton
      bin: standard
Setting up Verlet run ...
  Unit style    : lj
  Current step  : 24000
  Time step     : 0.001
Per MPI rank memory allocation (min/avg/max) = 9.126 | 9.126 | 9.126 Mbytes
Step Temp E_pair E_mol TotEng Press 
   24000            0 -0.002530684            0 -0.002530684 -2.6189283e-07 
   24200            0 -0.002530684            0 -0.002530684 -2.6189283e-07 
   24400            0 -0.002530684            0 -0.002530684 -2.6189283e-07 
   24600            0 -0.002530684            0 -0.002530684 -2.6189283e-07 
   24800            0 -0.002530684            0 -0.002530684 -2.6189283e-07 
   25000            0 -0.002530684            0 -0.002530684 -2.6189283e-07 
Loop time of 0.024129 on 1 procs for 1000 steps with 2 atoms

Performance: 3580753.455 tau/day, 41443.906 timesteps/s
0.0% CPU use with 1 MPI tasks x 1 OpenMP threads

MPI task timing breakdown:
Section |  min time  |  avg time  |  max time  |%varavg| %total
---------------------------------------------------------------
Pair    | 0.005732   | 0.005732   | 0.005732   |   0.0 | 23.76
Bond    | 0.001442   | 0.001442   | 0.001442   |   0.0 |  5.98
Neigh   | 0          | 0          | 0          |   0.0 |  0.00
Comm    | 0.003422   | 0.003422   | 0.003422   |   0.0 | 14.18
Output  | 0.005004   | 0.005004   | 0.005004   |   0.0 | 20.74
Modify  | 0.002721   | 0.002721   | 0.002721   |   0.0 | 11.28
Other   |            | 0.005808   |            |       | 24.07

Nlocal:    2 ave 2 max 2 min
Histogram: 1 0 0 0 0 0 0 0 0 0
Nghost:    0 ave 0 max 0 min
Histogram: 1 0 0 0 0 0 0 0 0 0
Neighs:    1 ave 1 max 1 min
Histogram: 1 0 0 0 0 0 0 0 0 0

Total # of neighbors = 1
Ave neighs/atom = 0.5
Ave special neighs/atom = 0
Neighbor list builds = 0
Dangerous builds = 0
Displacing atoms ...
Neighbor list info ...
  update every 1 steps, delay 10 steps, check yes
  max neighbors/atom: 2000, page size: 100000
  master list distance cutoff = 3.8
  ghost atom cutoff = 3.8
  binsize = 1.9, bins = 22 22 22
  6 neighbor lists, perpetual/occasional/extra = 5 1 0
  (1) pair lj/expand/twopiece, perpetual, skip from (6)
      attributes: half, newton on
      pair build: skip
      stencil: none
      bin: none
  (2) pair soft/shift, perpetual, skip from (6)
      attributes: half, newton on
      pair build: skip
      stencil: none
      bin: none
  (3) pair zero, perpetual, skip from (6)
      attributes: half, newton on
      pair build: skip
      stencil: none
      bin: none
  (4) pair morse, perpetual, skip from (6)
      attributes: half, newton on
      pair build: skip
      stencil: none
      bin: none
  (5) compute pair/local, occasional, copy from (6)
      attributes: half, newton on
      pair build: copy
      stencil: none
      bin: none
  (6) neighbor class addition, perpetual
      attributes: half, newton on
      pair build: half/bin/newton
      stencil: half/bin/3d/newton
      bin: standard
Setting up Verlet run ...
  Unit style    : lj
  Current step  : 25000
  Time step     : 0.001
Per MPI rank memory allocation (min/avg/max) = 9.126 | 9.126 | 9.126 Mbytes
Step Temp E_pair E_mol TotEng Press 
   25000            0 -0.0027397209            0 -0.0027397209 -2.8499557e-07 
   25200            0 -0.0027397209            0 -0.0027397209 -2.8499557e-07 
   25400            0 -0.0027397209            0 -0.0027397209 -2.8499557e-07 
   25600            0 -0.0027397209            0 -0.0027397209 -2.8499557e-07 
   25800            0 -0.0027397209            0 -0.0027397209 -2.8499557e-07 
   26000            0 -0.0027397209            0 -0.0027397209 -2.8499557e-07 
Loop time of 0.02664 on 1 procs for 1000 steps with 2 atoms

Performance: 3243243.244 tau/day, 37537.538 timesteps/s
0.0% CPU use with 1 MPI tasks x 1 OpenMP threads

MPI task timing breakdown:
Section |  min time  |  avg time  |  max time  |%varavg| %total
---------------------------------------------------------------
Pair    | 0.002751   | 0.002751   | 0.002751   |   0.0 | 10.33
Bond    | 0.002437   | 0.002437   | 0.002437   |   0.0 |  9.15
Neigh   | 0          | 0          | 0          |   0.0 |  0.00
Comm    | 0.003066   | 0.003066   | 0.003066   |   0.0 | 11.51
Output  | 0.010657   | 0.010657   | 0.010657   |   0.0 | 40.00
Modify  | 0.003005   | 0.003005   | 0.003005   |   0.0 | 11.28
Other   |            | 0.004724   |            |       | 17.73

Nlocal:    2 ave 2 max 2 min
Histogram: 1 0 0 0 0 0 0 0 0 0
Nghost:    0 ave 0 max 0 min
Histogram: 1 0 0 0 0 0 0 0 0 0
Neighs:    1 ave 1 max 1 min
Histogram: 1 0 0 0 0 0 0 0 0 0

Total # of neighbors = 1
Ave neighs/atom = 0.5
Ave special neighs/atom = 0
Neighbor list builds = 0
Dangerous builds = 0
Displacing atoms ...
Neighbor list info ...
  update every 1 steps, delay 10 steps, check yes
  max neighbors/atom: 2000, page size: 100000
  master list distance cutoff = 3.8
  ghost atom cutoff = 3.8
  binsize = 1.9, bins = 22 22 22
  6 neighbor lists, perpetual/occasional/extra = 5 1 0
  (1) pair lj/expand/twopiece, perpetual, skip from (6)
      attributes: half, newton on
      pair build: skip
      stencil: none
      bin: none
  (2) pair soft/shift, perpetual, skip from (6)
      attributes: half, newton on
      pair build: skip
      stencil: none
      bin: none
  (3) pair zero, perpetual, skip from (6)
      attributes: half, newton on
      pair build: skip
      stencil: none
      bin: none
  (4) pair morse, perpetual, skip from (6)
      attributes: half, newton on
      pair build: skip
      stencil: none
      bin: none
  (5) compute pair/local, occasional, copy from (6)
      attributes: half, newton on
      pair build: copy
      stencil: none
      bin: none
  (6) neighbor class addition, perpetual
      attributes: half, newton on
      pair build: half/bin/newton
      stencil: half/bin/3d/newton
      bin: standard
Setting up Verlet run ...
  Unit style    : lj
  Current step  : 26000
  Time step     : 0.001
Per MPI rank memory allocation (min/avg/max) = 9.126 | 9.126 | 9.126 Mbytes
Step Temp E_pair E_mol TotEng Press 
   26000            0 -0.0029691596            0 -0.0029691596 -3.1049626e-07 
   26200            0 -0.0029691596            0 -0.0029691596 -3.1049626e-07 
   26400            0 -0.0029691596            0 -0.0029691596 -3.1049626e-07 
   26600            0 -0.0029691596            0 -0.0029691596 -3.1049626e-07 
   26800            0 -0.0029691596            0 -0.0029691596 -3.1049626e-07 
   27000            0 -0.0029691596            0 -0.0029691596 -3.1049626e-07 
Loop time of 0.020234 on 1 procs for 1000 steps with 2 atoms

Performance: 4270040.527 tau/day, 49421.765 timesteps/s
0.0% CPU use with 1 MPI tasks x 1 OpenMP threads

MPI task timing breakdown:
Section |  min time  |  avg time  |  max time  |%varavg| %total
---------------------------------------------------------------
Pair    | 0.002265   | 0.002265   | 0.002265   |   0.0 | 11.19
Bond    | 0.00168    | 0.00168    | 0.00168    |   0.0 |  8.30
Neigh   | 0          | 0          | 0          |   0.0 |  0.00
Comm    | 0.002859   | 0.002859   | 0.002859   |   0.0 | 14.13
Output  | 0.004319   | 0.004319   | 0.004319   |   0.0 | 21.35
Modify  | 0.002897   | 0.002897   | 0.002897   |   0.0 | 14.32
Other   |            | 0.006214   |            |       | 30.71

Nlocal:    2 ave 2 max 2 min
Histogram: 1 0 0 0 0 0 0 0 0 0
Nghost:    0 ave 0 max 0 min
Histogram: 1 0 0 0 0 0 0 0 0 0
Neighs:    1 ave 1 max 1 min
Histogram: 1 0 0 0 0 0 0 0 0 0

Total # of neighbors = 1
Ave neighs/atom = 0.5
Ave special neighs/atom = 0
Neighbor list builds = 0
Dangerous builds = 0
Displacing atoms ...
Neighbor list info ...
  update every 1 steps, delay 10 steps, check yes
  max neighbors/atom: 2000, page size: 100000
  master list distance cutoff = 3.8
  ghost atom cutoff = 3.8
  binsize = 1.9, bins = 22 22 22
  6 neighbor lists, perpetual/occasional/extra = 5 1 0
  (1) pair lj/expand/twopiece, perpetual, skip from (6)
      attributes: half, newton on
      pair build: skip
      stencil: none
      bin: none
  (2) pair soft/shift, perpetual, skip from (6)
      attributes: half, newton on
      pair build: skip
      stencil: none
      bin: none
  (3) pair zero, perpetual, skip from (6)
      attributes: half, newton on
      pair build: skip
      stencil: none
      bin: none
  (4) pair morse, perpetual, skip from (6)
      attributes: half, newton on
[...]
  (1) pair lj/expand/twopiece, perpetual, skip from (6)
      attributes: half, newton on
      pair build: skip
      stencil: none
      bin: none
  (2) pair soft/shift, perpetual, skip from (6)
      attributes: half, newton on
      pair build: skip
      stencil: none
      bin: none
  (3) pair zero, perpetual, skip from (6)
      attributes: half, newton on
      pair build: skip
      stencil: none
      bin: none
  (4) pair morse, perpetual, skip from (6)
      attributes: half, newton on
      pair build: skip
      stencil: none
      bin: none
  (5) compute pair/local, occasional, copy from (6)
      attributes: half, newton on
      pair build: copy
      stencil: none
      bin: none
  (6) neighbor class addition, perpetual
      attributes: half, newton on
      pair build: half/bin/newton
      stencil: half/bin/3d/newton
      bin: standard
Setting up Verlet run ...
  Unit style    : lj
  Current step  : 74000
  Time step     : 0.001
Per MPI rank memory allocation (min/avg/max) = 9.126 | 9.126 | 9.126 Mbytes
Step Temp E_pair E_mol TotEng Press 
   74000            0  -0.33143495            0  -0.33143495 0.00016766754 
   74200            0  -0.33143495            0  -0.33143495 0.00016766754 
   74400            0  -0.33143495            0  -0.33143495 0.00016766754 
   74600            0  -0.33143495            0  -0.33143495 0.00016766754 
   74800            0  -0.33143495            0  -0.33143495 0.00016766754 
   75000            0  -0.33143495            0  -0.33143495 0.00016766754 
Loop time of 0.040237 on 1 procs for 1000 steps with 2 atoms

Performance: 2147277.380 tau/day, 24852.747 timesteps/s
0.0% CPU use with 1 MPI tasks x 1 OpenMP threads

MPI task timing breakdown:
Section |  min time  |  avg time  |  max time  |%varavg| %total
---------------------------------------------------------------
Pair    | 0.005654   | 0.005654   | 0.005654   |   0.0 | 14.05
Bond    | 0.003637   | 0.003637   | 0.003637   |   0.0 |  9.04
Neigh   | 0          | 0          | 0          |   0.0 |  0.00
Comm    | 0.00449    | 0.00449    | 0.00449    |   0.0 | 11.16
Output  | 0.012694   | 0.012694   | 0.012694   |   0.0 | 31.55
Modify  | 0.004502   | 0.004502   | 0.004502   |   0.0 | 11.19
Other   |            | 0.00926    |            |       | 23.01

Nlocal:    2 ave 2 max 2 min
Histogram: 1 0 0 0 0 0 0 0 0 0
Nghost:    0 ave 0 max 0 min
Histogram: 1 0 0 0 0 0 0 0 0 0
Neighs:    1 ave 1 max 1 min
Histogram: 1 0 0 0 0 0 0 0 0 0

Total # of neighbors = 1
Ave neighs/atom = 0.5
Ave special neighs/atom = 0
Neighbor list builds = 0
Dangerous builds = 0
Displacing atoms ...
Neighbor list info ...
  update every 1 steps, delay 10 steps, check yes
  max neighbors/atom: 2000, page size: 100000
  master list distance cutoff = 3.8
  ghost atom cutoff = 3.8
  binsize = 1.9, bins = 22 22 22
  6 neighbor lists, perpetual/occasional/extra = 5 1 0
  (1) pair lj/expand/twopiece, perpetual, skip from (6)
      attributes: half, newton on
      pair build: skip
      stencil: none
      bin: none
  (2) pair soft/shift, perpetual, skip from (6)
      attributes: half, newton on
      pair build: skip
      stencil: none
      bin: none
  (3) pair zero, perpetual, skip from (6)
      attributes: half, newton on
      pair build: skip
      stencil: none
      bin: none
  (4) pair morse, perpetual, skip from (6)
      attributes: half, newton on
      pair build: skip
      stencil: none
      bin: none
  (5) compute pair/local, occasional, copy from (6)
      attributes: half, newton on
      pair build: copy
      stencil: none
      bin: none
  (6) neighbor class addition, perpetual
      attributes: half, newton on
      pair build: half/bin/newton
      stencil: half/bin/3d/newton
      bin: standard
Setting up Verlet run ...
  Unit style    : lj
  Current step  : 75000
  Time step     : 0.001
Per MPI rank memory allocation (min/avg/max) = 9.126 | 9.126 | 9.126 Mbytes
Step Temp E_pair E_mol TotEng Press 
   75000            0 3.1974423e-14            0 3.1974423e-14     0.000375 
   75200            0 3.1974423e-14            0 3.1974423e-14     0.000375 
   75400            0 3.1974423e-14            0 3.1974423e-14     0.000375 
   75600            0 3.1974423e-14            0 3.1974423e-14     0.000375 
   75800            0 3.1974423e-14            0 3.1974423e-14     0.000375 
   76000            0 3.1974423e-14            0 3.1974423e-14     0.000375 
Loop time of 0.062885 on 1 procs for 1000 steps with 2 atoms

Performance: 1373936.550 tau/day, 15902.043 timesteps/s
49.7% CPU use with 1 MPI tasks x 1 OpenMP threads

MPI task timing breakdown:
Section |  min time  |  avg time  |  max time  |%varavg| %total
---------------------------------------------------------------
Pair    | 0.003213   | 0.003213   | 0.003213   |   0.0 |  5.11
Bond    | 0.004473   | 0.004473   | 0.004473   |   0.0 |  7.11
Neigh   | 0          | 0          | 0          |   0.0 |  0.00
Comm    | 0.003388   | 0.003388   | 0.003388   |   0.0 |  5.39
Output  | 0.025469   | 0.025469   | 0.025469   |   0.0 | 40.50
Modify  | 0.008737   | 0.008737   | 0.008737   |   0.0 | 13.89
Other   |            | 0.01761    |            |       | 28.00

Nlocal:    2 ave 2 max 2 min
Histogram: 1 0 0 0 0 0 0 0 0 0
Nghost:    0 ave 0 max 0 min
Histogram: 1 0 0 0 0 0 0 0 0 0
Neighs:    1 ave 1 max 1 min
Histogram: 1 0 0 0 0 0 0 0 0 0

Total # of neighbors = 1
Ave neighs/atom = 0.5
Ave special neighs/atom = 0
Neighbor list builds = 0
Dangerous builds = 0
Displacing atoms ...
Neighbor list info ...
  update every 1 steps, delay 10 steps, check yes
  max neighbors/atom: 2000, page size: 100000
  master list distance cutoff = 3.8
  ghost atom cutoff = 3.8
  binsize = 1.9, bins = 22 22 22
  6 neighbor lists, perpetual/occasional/extra = 5 1 0
  (1) pair lj/expand/twopiece, perpetual, skip from (6)
      attributes: half, newton on
      pair build: skip
      stencil: none
      bin: none
  (2) pair soft/shift, perpetual, skip from (6)
      attributes: half, newton on
      pair build: skip
      stencil: none
      bin: none
  (3) pair zero, perpetual, skip from (6)
      attributes: half, newton on
      pair build: skip
      stencil: none
      bin: none
  (4) pair morse, perpetual, skip from (6)
      attributes: half, newton on
      pair build: skip
      stencil: none
      bin: none
  (5) compute pair/local, occasional, copy from (6)
      attributes: half, newton on
      pair build: copy
      stencil: none
      bin: none
  (6) neighbor class addition, perpetual
      attributes: half, newton on
      pair build: half/bin/newton
      stencil: half/bin/3d/newton
      bin: standard
Setting up Verlet run ...
  Unit style    : lj
  Current step  : 76000
  Time step     : 0.001
Per MPI rank memory allocation (min/avg/max) = 9.126 | 9.126 | 9.126 Mbytes
Step Temp E_pair E_mol TotEng Press 
   76000            0   0.70911947            0   0.70911947 0.00076568951 
   76200            0   0.70911947            0   0.70911947 0.00076568951 
   76400            0   0.70911947            0   0.70911947 0.00076568951 
   76600            0   0.70911947            0   0.70911947 0.00076568951 
   76800            0   0.70911947            0   0.70911947 0.00076568951 
   77000            0   0.70911947            0   0.70911947 0.00076568951 
Loop time of 0.049192 on 1 procs for 1000 steps with 2 atoms

Performance: 1756383.152 tau/day, 20328.509 timesteps/s
31.8% CPU use with 1 MPI tasks x 1 OpenMP threads

MPI task timing breakdown:
Section |  min time  |  avg time  |  max time  |%varavg| %total
---------------------------------------------------------------
Pair    | 0.002747   | 0.002747   | 0.002747   |   0.0 |  5.58
Bond    | 0.001824   | 0.001824   | 0.001824   |   0.0 |  3.71
Neigh   | 0          | 0          | 0          |   0.0 |  0.00
Comm    | 0.005183   | 0.005183   | 0.005183   |   0.0 | 10.54
Output  | 0.008112   | 0.008112   | 0.008112   |   0.0 | 16.49
Modify  | 0.012609   | 0.012609   | 0.012609   |   0.0 | 25.63
Other   |            | 0.01872    |            |       | 38.05

Nlocal:    2 ave 2 max 2 min
Histogram: 1 0 0 0 0 0 0 0 0 0
Nghost:    0 ave 0 max 0 min
Histogram: 1 0 0 0 0 0 0 0 0 0
Neighs:    1 ave 1 max 1 min
Histogram: 1 0 0 0 0 0 0 0 0 0

Total # of neighbors = 1
Ave neighs/atom = 0.5
Ave special neighs/atom = 0
Neighbor list builds = 0
Dangerous builds = 0
Displacing atoms ...
Neighbor list info ...
  update every 1 steps, delay 10 steps, check yes
  max neighbors/atom: 2000, page size: 100000
  master list distance cutoff = 3.8
  ghost atom cutoff = 3.8
  binsize = 1.9, bins = 22 22 22
  6 neighbor lists, perpetual/occasional/extra = 5 1 0
  (1) pair lj/expand/twopiece, perpetual, skip from (6)
      attributes: half, newton on
      pair build: skip
      stencil: none
      bin: none
  (2) pair soft/shift, perpetual, skip from (6)
      attributes: half, newton on
      pair build: skip
      stencil: none
      bin: none
  (3) pair zero, perpetual, skip from (6)
      attributes: half, newton on
      pair build: skip
      stencil: none
      bin: none
  (4) pair morse, perpetual, skip from (6)
      attributes: half, newton on
      pair build: skip
      stencil: none
      bin: none
  (5) compute pair/local, occasional, copy from (6)
      attributes: half, newton on
      pair build: copy
      stencil: none
      bin: none
  (6) neighbor class addition, perpetual
      attributes: half, newton on
      pair build: half/bin/newton
      stencil: half/bin/3d/newton
      bin: standard
Setting up Verlet run ...
  Unit style    : lj
  Current step  : 77000
  Time step     : 0.001
Per MPI rank memory allocation (min/avg/max) = 9.126 | 9.126 | 9.126 Mbytes
Step Temp E_pair E_mol TotEng Press 
   77000            0    2.1413162            0    2.1413162 0.0015038457 
   77200            0    2.1413162            0    2.1413162 0.0015038457 
   77400            0    2.1413162            0    2.1413162 0.0015038457 
   77600            0    2.1413162            0    2.1413162 0.0015038457 
   77800            0    2.1413162            0    2.1413162 0.0015038457 
   78000            0    2.1413162            0    2.1413162 0.0015038457 
Loop time of 0.030159 on 1 procs for 1000 steps with 2 atoms

Performance: 2864816.471 tau/day, 33157.598 timesteps/s
0.0% CPU use with 1 MPI tasks x 1 OpenMP threads

MPI task timing breakdown:
Section |  min time  |  avg time  |  max time  |%varavg| %total
---------------------------------------------------------------
Pair    | 0.00363    | 0.00363    | 0.00363    |   0.0 | 12.04
Bond    | 0.002092   | 0.002092   | 0.002092   |   0.0 |  6.94
Neigh   | 0          | 0          | 0          |   0.0 |  0.00
Comm    | 0.005443   | 0.005443   | 0.005443   |   0.0 | 18.05
Output  | 0.009403   | 0.009403   | 0.009403   |   0.0 | 31.18
Modify  | 0.004816   | 0.004816   | 0.004816   |   0.0 | 15.97
Other   |            | 0.004775   |            |       | 15.83

Nlocal:    2 ave 2 max 2 min
Histogram: 1 0 0 0 0 0 0 0 0 0
Nghost:    0 ave 0 max 0 min
Histogram: 1 0 0 0 0 0 0 0 0 0
Neighs:    1 ave 1 max 1 min
Histogram: 1 0 0 0 0 0 0 0 0 0

Total # of neighbors = 1
Ave neighs/atom = 0.5
Ave special neighs/atom = 0
Neighbor list builds = 0
Dangerous builds = 0
Displacing atoms ...
Neighbor list info ...
  update every 1 steps, delay 10 steps, check yes
  max neighbors/atom: 2000, page size: 100000
  master list distance cutoff = 3.8
  ghost atom cutoff = 3.8
  binsize = 1.9, bins = 22 22 22
  6 neighbor lists, perpetual/occasional/extra = 5 1 0
  (1) pair lj/expand/twopiece, perpetual, skip from (6)
      attributes: half, newton on
      pair build: skip
      stencil: none
      bin: none
  (2) pair soft/shift, perpetual, skip from (6)
      attributes: half, newton on
      pair build: skip
      stencil: none
      bin: none
  (3) pair zero, perpetual, skip from (6)
      attributes: half, newton on
      pair build: skip
      stencil: none
      bin: none
  (4) pair morse, perpetual, skip from (6)
      attributes: half, newton on
      pair build: skip
      stencil: none
      bin: none
  (5) compute pair/local, occasional, copy from (6)
      attributes: half, newton on
      pair build: copy
      stencil: none
      bin: none
  (6) neighbor class addition, perpetual
      attributes: half, newton on
      pair build: half/bin/newton
      stencil: half/bin/3d/newton
      bin: standard
Setting up Verlet run ...
  Unit style    : lj
  Current step  : 78000
  Time step     : 0.001
Per MPI rank memory allocation (min/avg/max) = 9.126 | 9.126 | 9.126 Mbytes
Step Temp E_pair E_mol TotEng Press 
   78000            0     4.966783            0     4.966783 0.0029127601 
   78200            0     4.966783            0     4.966783 0.0029127601 
   78400            0     4.966783            0     4.966783 0.0029127601 
   78600            0     4.966783            0     4.966783 0.0029127601 
   78800            0     4.966783            0     4.966783 0.0029127601 
   79000            0     4.966783            0     4.966783 0.0029127601 
Loop time of 0.033907 on 1 procs for 1000 steps with 2 atoms

Performance: 2548146.402 tau/day, 29492.435 timesteps/s
46.1% CPU use with 1 MPI tasks x 1 OpenMP threads

MPI task timing breakdown:
Section |  min time  |  avg time  |  max time  |%varavg| %total
---------------------------------------------------------------
Pair    | 0.005883   | 0.005883   | 0.005883   |   0.0 | 17.35
Bond    | 0.002764   | 0.002764   | 0.002764   |   0.0 |  8.15
Neigh   | 0          | 0          | 0          |   0.0 |  0.00
Comm    | 0.005859   | 0.005859   | 0.005859   |   0.0 | 17.28
Output  | 0.00852    | 0.00852    | 0.00852    |   0.0 | 25.13
Modify  | 0.00343    | 0.00343    | 0.00343    |   0.0 | 10.12
Other   |            | 0.007451   |            |       | 21.97

Nlocal:    2 ave 2 max 2 min
Histogram: 1 0 0 0 0 0 0 0 0 0
Nghost:    0 ave 0 max 0 min
Histogram: 1 0 0 0 0 0 0 0 0 0
Neighs:    1 ave 1 max 1 min
Histogram: 1 0 0 0 0 0 0 0 0 0

Total # of neighbors = 1
Ave neighs/atom = 0.5
Ave special neighs/atom = 0
Neighbor list builds = 0
Dangerous builds = 0
Displacing atoms ...
Neighbor list info ...
  update every 1 steps, delay 10 steps, check yes
  max neighbors/atom: 2000, page size: 100000
  master list distance cutoff = 3.8
  ghost atom cutoff = 3.8
  binsize = 1.9, bins = 22 22 22
  6 neighbor lists, perpetual/occasional/extra = 5 1 0
  (1) pair lj/expand/twopiece, perpetual, skip from (6)
      attributes: half, newton on
      pair build: skip
      stencil: none
      bin: none
  (2) pair soft/shift, perpetual, skip from (6)
      attributes: half, newton on
      pair build: skip
      stencil: none
      bin: none
  (3) pair zero, perpetual, skip from (6)
      attributes: half, newton on
      pair build: skip
      stencil: none
      bin: none
  (4) pair morse, perpetual, skip from (6)
      attributes: half, newton on
      pair build: skip
      stencil: none
      bin: none
  (5) compute pair/local, occasional, copy from (6)
      attributes: half, newton on
      pair build: copy
      stencil: none
      bin: none
  (6) neighbor class addition, perpetual
      attributes: half, newton on
      pair build: half/bin/newton
      stencil: half/bin/3d/newton
      bin: standard
Setting up Verlet run ...
  Unit style    : lj
  Current step  : 79000
  Time step     : 0.001
Per MPI rank memory allocation (min/avg/max) = 9.126 | 9.126 | 9.126 Mbytes
Step Temp E_pair E_mol TotEng Press 
   79000            0     10.51293            0     10.51293 0.0056459859 
   79200            0     10.51293            0     10.51293 0.0056459859 
   79400            0     10.51293            0     10.51293 0.0056459859 
   79600            0     10.51293            0     10.51293 0.0056459859 
   79800            0     10.51293            0     10.51293 0.0056459859 
   80000            0     10.51293            0     10.51293 0.0056459859 
Loop time of 0.021492 on 1 procs for 1000 steps with 2 atoms

Performance: 4020100.497 tau/day, 46528.941 timesteps/s
0.0% CPU use with 1 MPI tasks x 1 OpenMP threads

MPI task timing breakdown:
Section |  min time  |  avg time  |  max time  |%varavg| %total
---------------------------------------------------------------
Pair    | 0.002337   | 0.002337   | 0.002337   |   0.0 | 10.87
Bond    | 0.001848   | 0.001848   | 0.001848   |   0.0 |  8.60
Neigh   | 0          | 0          | 0          |   0.0 |  0.00
Comm    | 0.003107   | 0.003107   | 0.003107   |   0.0 | 14.46
Output  | 0.004923   | 0.004923   | 0.004923   |   0.0 | 22.91
Modify  | 0.003101   | 0.003101   | 0.003101   |   0.0 | 14.43
Other   |            | 0.006176   |            |       | 28.74

Nlocal:    2 ave 2 max 2 min
Histogram: 1 0 0 0 0 0 0 0 0 0
Nghost:    0 ave 0 max 0 min
Histogram: 1 0 0 0 0 0 0 0 0 0
Neighs:    1 ave 1 max 1 min
Histogram: 1 0 0 0 0 0 0 0 0 0

Total # of neighbors = 1
Ave neighs/atom = 0.5
Ave special neighs/atom = 0
Neighbor list builds = 0
Dangerous builds = 0
Displacing atoms ...
Neighbor list info ...
  update every 1 steps, delay 10 steps, check yes
  max neighbors/atom: 2000, page size: 100000
  master list distance cutoff = 3.8
  ghost atom cutoff = 3.8
  binsize = 1.9, bins = 22 22 22
  6 neighbor lists, perpetual/occasional/extra = 5 1 0
  (1) pair lj/expand/twopiece, perpetual, skip from (6)
      attributes: half, newton on
      pair build: skip
      stencil: none
      bin: none
  (2) pair soft/shift, perpetual, skip from (6)
      attributes: half, newton on
      pair build: skip
      stencil: none
      bin: none
  (3) pair zero, perpetual, skip from (6)
      attributes: half, newton on
      pair build: skip
      stencil: none
      bin: none
  (4) pair morse, perpetual, skip from (6)
      attributes: half, newton on
      pair build: skip
      stencil: none
      bin: none
  (5) compute pair/local, occasional, copy from (6)
      attributes: half, newton on
      pair build: copy
      stencil: none
      bin: none
  (6) neighbor class addition, perpetual
      attributes: half, newton on
      pair build: half/bin/newton
      stencil: half/bin/3d/newton
      bin: standard
Setting up Verlet run ...
  Unit style    : lj
  Current step  : 80000
  Time step     : 0.001
Per MPI rank memory allocation (min/avg/max) = 9.126 | 9.126 | 9.126 Mbytes
Step Temp E_pair E_mol TotEng Press 
   80000            0    21.474436            0    21.474436  0.011063996 
   80200            0    21.474436            0    21.474436  0.011063996 
   80400            0    21.474436            0    21.474436  0.011063996 
   80600            0    21.474436            0    21.474436  0.011063996 
   80800            0    21.474436            0    21.474436  0.011063996 
   81000            0    21.474436            0    21.474436  0.011063996 
Loop time of 0.027003 on 1 procs for 1000 steps with 2 atoms

Performance: 3199644.488 tau/day, 37032.922 timesteps/s
0.0% CPU use with 1 MPI tasks x 1 OpenMP threads

MPI task timing breakdown:
Section |  min time  |  avg time  |  max time  |%varavg| %total
---------------------------------------------------------------
Pair    | 0.002372   | 0.002372   | 0.002372   |   0.0 |  8.78
Bond    | 0.003026   | 0.003026   | 0.003026   |   0.0 | 11.21
Neigh   | 0          | 0          | 0          |   0.0 |  0.00
Comm    | 0.003191   | 0.003191   | 0.003191   |   0.0 | 11.82
Output  | 0.007157   | 0.007157   | 0.007157   |   0.0 | 26.50
Modify  | 0.004347   | 0.004347   | 0.004347   |   0.0 | 16.10
Other   |            | 0.00691    |            |       | 25.59

Nlocal:    2 ave 2 max 2 min
Histogram: 1 0 0 0 0 0 0 0 0 0
Nghost:    0 ave 0 max 0 min
Histogram: 1 0 0 0 0 0 0 0 0 0
Neighs:    1 ave 1 max 1 min
Histogram: 1 0 0 0 0 0 0 0 0 0

Total # of neighbors = 1
Ave neighs/atom = 0.5
Ave special neighs/atom = 0
Neighbor list builds = 0
Dangerous builds = 0
Total wall time: 0:00:02
