LAMMPS Description

     1650  atoms
     1600  bonds
     1450  angles
     0  dihedrals
     0  impropers

     8  atom types
     3  bond types
     4  angle types

  -20 20 xlo xhi
  -20 20 ylo yhi
  -20 20 zlo zhi

Masses

1 1  # NP
2 0.5  # GR
3 0.5  # A
4 0.5  # B
5 0.25  # SA
6 0.25  # ACTIVE
7 0.25  # DORMANT
8 0.25  # ANCHOR

Atoms  # angle

1 2 8 1.0 -6.123233995736766e-17 0.0
2 2 2 0.0 0.0 0.0
3 2 6 -1.0 6.123233995736766e-17 0.0
4 3 5 0.5 1.1 0.0
5 3 3 0.0 1.1 0.0
6 3 5 -0.5 1.1 0.0
7 4 5 0.5 2.2 0.0
8 4 3 0.0 2.2 0.0
9 4 5 -0.5 2.2 0.0
10 5 5 0.5 3.3 0.0
11 5 3 0.0 3.3 0.0
12 5 5 -0.5 3.3 0.0
13 6 5 0.5 4.4 0.0
14 6 3 0.0 4.4 0.0
15 6 5 -0.5 4.4 0.0
16 7 5 0.5 5.5 0.0
17 7 3 0.0 5.5 0.0
18 7 5 -0.5 5.5 0.0
19 8 5 0.5 6.6 0.0
20 8 3 0.0 6.6 0.0
21 8 5 -0.5 6.6 0.0
22 9 5 0.5 7.7 0.0
23 9 3 0.0 7.7 0.0
24 9 5 -0.5 7.7 0.0
25 10 5 0.5 8.8 0.0
26 10 3 0.0 8.8 0.0
27 10 5 -0.5 8.8 0.0
28 11 5 0.5 9.9 0.0
29 11 3 0.0 9.9 0.0
30 11 5 -0.5 9.9 0.0
31 12 5 0.5 11.0 0.0
32 12 3 0.0 11.0 0.0
33 12 5 -0.5 11.0 0.0
34 14 8 1.0 -6.123233995736766e-17 2.0
35 14 2 0.0 0.0 2.0
36 14 6 -1.0 6.123233995736766e-17 2.0
37 15 5 0.5 1.1 2.0
38 15 3 0.0 1.1 2.0
39 15 5 -0.5 1.1 2.0
40 16 5 0.5 2.2 2.0
41 16 3 0.0 2.2 2.0
42 16 5 -0.5 2.2 2.0
43 17 5 0.5 3.3 2.0
44 17 3 0.0 3.3 2.0
45 17 5 -0.5 3.3 2.0
46 18 5 0.5 4.4 2.0
47 18 3 0.0 4.4 2.0
48 18 5 -0.5 4.4 2.0
49 19 5 0.5 5.5 2.0
50 19 3 0.0 5.5 2.0
51 19 5 -0.5 5.5 2.0
52 20 5 0.5 6.6 2.0
53 20 3 0.0 6.6 2.0
54 20 5 -0.5 6.6 2.0
55 21 5 0.5 7.7 2.0
56 21 3 0.0 7.7 2.0
57 21 5 -0.5 7.7 2.0
58 22 5 0.5 8.8 2.0
59 22 3 0.0 8.8 2.0
60 22 5 -0.5 8.8 2.0
61 23 5 0.5 9.9 2.0
62 23 3 0.0 9.9 2.0
63 23 5 -0.5 9.9 2.0
64 24 5 0.5 11.0 2.0
65 24 3 0.0 11.0 2.0
66 24 5 -0.5 11.0 2.0
67 26 8 1.0 -6.123233995736766e-17 4.0
68 26 2 0.0 0.0 4.0
69 26 6 -1.0 6.123233995736766e-17 4.0
70 27 5 0.5 1.1 4.0
71 27 3 0.0 1.1 4.0
72 27 5 -0.5 1.1 4.0
73 28 5 0.5 2.2 4.0
74 28 3 0.0 2.2 4.0
75 28 5 -0.5 2.2 4.0
76 29 5 0.5 3.3 4.0
77 29 3 0.0 3.3 4.0
78 29 5 -0.5 3.3 4.0
79 30 5 0.5 4.4 4.0
80 30 3 0.0 4.4 4.0
81 30 5 -0.5 4.4 4.0
82 31 5 0.5 5.5 4.0
83 31 3 0.0 5.5 4.0
84 31 5 -0.5 5.5 4.0
85 32 5 0.5 6.6 4.0
86 32 3 0.0 6.6 4.0
87 32 5 -0.5 6.6 4.0
88 33 5 0.5 7.7 4.0
89 33 3 0.0 7.7 4.0
90 33 5 -0.5 7.7 4.0
91 34 5 0.5 8.8 4.0
92 34 3 0.0 8.8 4.0
93 34 5 -0.5 8.8 4.0
94 35 5 0.5 9.9 4.0
95 35 3 0.0 9.9 4.0
96 35 5 -0.5 9.9 4.0
97 36 5 0.5 11.0 4.0
98 36 3 0.0 11.0 4.0
99 36 5 -0.5 11.0 4.0
100 38 8 1.0 -6.123233995736766e-17 6.0
101 38 2 0.0 0.0 6.0
102 38 6 -1.0 6.123233995736766e-17 6.0
103 39 5 0.5 1.1 6.0
104 39 3 0.0 1.1 6.0
105 39 5 -0.5 1.1 6.0
106 40 5 0.5 2.2 6.0
107 40 3 0.0 2.2 6.0
108 40 5 -0.5 2.2 6.0
109 41 5 0.5 3.3 6.0
110 41 3 0.0 3.3 6.0
111 41 5 -0.5 3.3 6.0
112 42 5 0.5 4.4 6.0
113 42 3 0.0 4.4 6.0
114 42 5 -0.5 4.4 6.0
115 43 5 0.5 5.5 6.0
116 43 3 0.0 5.5 6.0
117 43 5 -0.5 5.5 6.0
118 44 5 0.5 6.6 6.0
119 44 3 0.0 6.6 6.0
120 44 5 -0.5 6.6 6.0
121 45 5 0.5 7.7 6.0
122 45 3 0.0 7.7 6.0
123 45 5 -0.5 7.7 6.0
124 46 5 0.5 8.8 6.0
125 46 3 0.0 8.8 6.0
126 46 5 -0.5 8.8 6.0
127 47 5 0.5 9.9 6.0
128 47 3 0.0 9.9 6.0
129 47 5 -0.5 9.9 6.0
130 48 5 0.5 11.0 6.0
131 48 3 0.0 11.0 6.0
132 48 5 -0.5 11.0 6.0
133 50 8 1.0 -6.123233995736766e-17 8.0
134 50 2 0.0 0.0 8.0
135 50 6 -1.0 6.123233995736766e-17 8.0
136 51 5 0.5 1.1 8.0
137 51 3 0.0 1.1 8.0
138 51 5 -0.5 1.1 8.0
139 52 5 0.5 2.2 8.0
140 52 3 0.0 2.2 8.0
141 52 5 -0.5 2.2 8.0
142 53 5 0.5 3.3 8.0
143 53 3 0.0 3.3 8.0
144 53 5 -0.5 3.3 8.0
145 54 5 0.5 4.4 8.0
146 54 3 0.0 4.4 8.0
147 54 5 -0.5 4.4 8.0
148 55 5 0.5 5.5 8.0
149 55 3 0.0 5.5 8.0
150 55 5 -0.5 5.5 8.0
151 56 5 0.5 6.6 8.0
152 56 3 0.0 6.6 8.0
153 56 5 -0.5 6.6 8.0
154 57 5 0.5 7.7 8.0
155 57 3 0.0 7.7 8.0
156 57 5 -0.5 7.7 8.0
157 58 5 0.5 8.8 8.0
158 58 3 0.0 8.8 8.0
159 58 5 -0.5 8.8 8.0
160 59 5 0.5 9.9 8.0
161 59 3 0.0 9.9 8.0
162 59 5 -0.5 9.9 8.0
163 60 5 0.5 11.0 8.0
164 60 3 0.0 11.0 8.0
165 60 5 -0.5 11.0 8.0
166 62 8 3.0 -6.123233995736766e-17 0.0
167 62 2 2.0 0.0 0.0
168 62 6 1.0 6.123233995736766e-17 0.0
169 63 5 2.5 1.1 0.0
170 63 3 2.0 1.1 0.0
171 63 5 1.5 1.1 0.0
172 64 5 2.5 2.2 0.0
173 64 3 2.0 2.2 0.0
174 64 5 1.5 2.2 0.0
175 65 5 2.5 3.3 0.0
176 65 3 2.0 3.3 0.0
177 65 5 1.5 3.3 0.0
178 66 5 2.5 4.4 0.0
179 66 3 2.0 4.4 0.0
180 66 5 1.5 4.4 0.0
181 67 5 2.5 5.5 0.0
182 67 3 2.0 5.5 0.0
183 67 5 1.5 5.5 0.0
184 68 5 2.5 6.6 0.0
185 68 3 2.0 6.6 0.0
186 68 5 1.5 6.6 0.0
187 69 5 2.5 7.7 0.0
188 69 3 2.0 7.7 0.0
189 69 5 1.5 7.7 0.0
190 70 5 2.5 8.8 0.0
191 70 3 2.0 8.8 0.0
192 70 5 1.5 8.8 0.0
193 71 5 2.5 9.9 0.0
194 71 3 2.0 9.9 0.0
195 71 5 1.5 9.9 0.0
196 72 5 2.5 11.0 0.0
197 72 3 2.0 11.0 0.0
198 72 5 1.5 11.0 0.0
199 74 8 3.0 -6.123233995736766e-17 2.0
200 74 2 2.0 0.0 2.0
201 74 6 1.0 6.123233995736766e-17 2.0
202 75 5 2.5 1.1 2.0
203 75 3 2.0 1.1 2.0
204 75 5 1.5 1.1 2.0
205 76 5 2.5 2.2 2.0
206 76 3 2.0 2.2 2.0
207 76 5 1.5 2.2 2.0
208 77 5 2.5 3.3 2.0
209 77 3 2.0 3.3 2.0
210 77 5 1.5 3.3 2.0
211 78 5 2.5 4.4 2.0
212 78 3 2.0 4.4 2.0
213 78 5 1.5 4.4 2.0
214 79 5 2.5 5.5 2.0
215 79 3 2.0 5.5 2.0
216 79 5 1.5 5.5 2.0
217 80 5 2.5 6.6 2.0
218 80 3 2.0 6.6 2.0
219 80 5 1.5 6.6 2.0
220 81 5 2.5 7.7 2.0
221 81 3 2.0 7.7 2.0
222 81 5 1.5 7.7 2.0
223 82 5 2.5 8.8 2.0
224 82 3 2.0 8.8 2.0
225 82 5 1.5 8.8 2.0
226 83 5 2.5 9.9 2.0
227 83 3 2.0 9.9 2.0
228 83 5 1.5 9.9 2.0
229 84 5 2.5 11.0 2.0
230 84 3 2.0 11.0 2.0
231 84 5 1.5 11.0 2.0
232 86 8 3.0 -6.123233995736766e-17 4.0
233 86 2 2.0 0.0 4.0
234 86 6 1.0 6.123233995736766e-17 4.0
235 87 5 2.5 1.1 4.0
236 87 3 2.0 1.1 4.0
237 87 5 1.5 1.1 4.0
238 88 5 2.5 2.2 4.0
239 88 3 2.0 2.2 4.0
240 88 5 1.5 2.2 4.0
241 89 5 2.5 3.3 4.0
242 89 3 2.0 3.3 4.0
243 89 5 1.5 3.3 4.0
244 90 5 2.5 4.4 4.0
245 90 3 2.0 4.4 4.0
246 90 5 1.5 4.4 4.0
247 91 5 2.5 5.5 4.0
248 91 3 2.0 5.5 4.0
249 91 5 1.5 5.5 4.0
250 92 5 2.5 6.6 4.0
251 92 3 2.0 6.6 4.0
252 92 5 1.5 6.6 4.0
253 93 5 2.5 7.7 4.0
254 93 3 2.0 7.7 4.0
255 93 5 1.5 7.7 4.0
256 94 5 2.5 8.8 4.0
257 94 3 2.0 8.8 4.0
258 94 5 1.5 8.8 4.0
259 95 5 2.5 9.9 4.0
260 95 3 2.0 9.9 4.0
261 95 5 1.5 9.9 4.0
262 96 5 2.5 11.0 4.0
263 96 3 2.0 11.0 4.0
264 96 5 1.5 11.0 4.0
265 98 8 3.0 -6.123233995736766e-17 6.0
266 98 2 2.0 0.0 6.0
267 98 6 1.0 6.123233995736766e-17 6.0
268 99 5 2.5 1.1 6.0
269 99 3 2.0 1.1 6.0
270 99 5 1.5 1.1 6.0
271 100 5 2.5 2.2 6.0
272 100 3 2.0 2.2 6.0
273 100 5 1.5 2.2 6.0
274 101 5 2.5 3.3 6.0
275 101 3 2.0 3.3 6.0
276 101 5 1.5 3.3 6.0
277 102 5 2.5 4.4 6.0
278 102 3 2.0 4.4 6.0
279 102 5 1.5 4.4 6.0
280 103 5 2.5 5.5 6.0
281 103 3 2.0 5.5 6.0
282 103 5 1.5 5.5 6.0
283 104 5 2.5 6.6 6.0
284 104 3 2.0 6.6 6.0
285 104 5 1.5 6.6 6.0
286 105 5 2.5 7.7 6.0
287 105 3 2.0 7.7 6.0
288 105 5 1.5 7.7 6.0
289 106 5 2.5 8.8 6.0
290 106 3 2.0 8.8 6.0
291 106 5 1.5 8.8 6.0
292 107 5 2.5 9.9 6.0
293 107 3 2.0 9.9 6.0
294 107 5 1.5 9.9 6.0
295 108 5 2.5 11.0 6.0
296 108 3 2.0 11.0 6.0
297 108 5 1.5 11.0 6.0
298 110 8 3.0 -6.123233995736766e-17 8.0
299 110 2 2.0 0.0 8.0
300 110 6 1.0 6.123233995736766e-17 8.0
301 111 5 2.5 1.1 8.0
302 111 3 2.0 1.1 8.0
303 111 5 1.5 1.1 8.0
304 112 5 2.5 2.2 8.0
305 112 3 2.0 2.2 8.0
306 112 5 1.5 2.2 8.0
307 113 5 2.5 3.3 8.0
308 113 3 2.0 3.3 8.0
309 113 5 1.5 3.3 8.0
310 114 5 2.5 4.4 8.0
311 114 3 2.0 4.4 8.0
312 114 5 1.5 4.4 8.0
313 115 5 2.5 5.5 8.0
314 115 3 2.0 5.5 8.0
315 115 5 1.5 5.5 8.0
316 116 5 2.5 6.6 8.0
317 116 3 2.0 6.6 8.0
318 116 5 1.5 6.6 8.0
319 117 5 2.5 7.7 8.0
320 117 3 2.0 7.7 8.0
321 117 5 1.5 7.7 8.0
322 118 5 2.5 8.8 8.0
323 118 3 2.0 8.8 8.0
324 118 5 1.5 8.8 8.0
325 119 5 2.5 9.9 8.0
326 119 3 2.0 9.9 8.0
327 119 5 1.5 9.9 8.0
328 120 5 2.5 11.0 8.0
329 120 3 2.0 11.0 8.0
330 120 5 1.5 11.0 8.0
331 122 8 5.0 -6.123233995736766e-17 0.0
332 122 2 4.0 0.0 0.0
333 122 6 3.0 6.123233995736766e-17 0.0
334 123 5 4.5 1.1 0.0
335 123 3 4.0 1.1 0.0
336 123 5 3.5 1.1 0.0
337 124 5 4.5 2.2 0.0
338 124 3 4.0 2.2 0.0
339 124 5 3.5 2.2 0.0
340 125 5 4.5 3.3 0.0
341 125 3 4.0 3.3 0.0
342 125 5 3.5 3.3 0.0
343 126 5 4.5 4.4 0.0
344 126 3 4.0 4.4 0.0
345 126 5 3.5 4.4 0.0
346 127 5 4.5 5.5 0.0
347 127 3 4.0 5.5 0.0
348 127 5 3.5 5.5 0.0
349 128 5 4.5 6.6 0.0
350 128 3 4.0 6.6 0.0
351 128 5 3.5 6.6 0.0
352 129 5 4.5 7.7 0.0
353 129 3 4.0 7.7 0.0
354 129 5 3.5 7.7 0.0
355 130 5 4.5 8.8 0.0
356 130 3 4.0 8.8 0.0
357 130 5 3.5 8.8 0.0
358 131 5 4.5 9.9 0.0
359 131 3 4.0 9.9 0.0
360 131 5 3.5 9.9 0.0
361 132 5 4.5 11.0 0.0
362 132 3 4.0 11.0 0.0
363 132 5 3.5 11.0 0.0
364 134 8 5.0 -6.123233995736766e-17 2.0
365 134 2 4.0 0.0 2.0
366 134 6 3.0 6.123233995736766e-17 2.0
367 135 5 4.5 1.1 2.0
368 135 3 4.0 1.1 2.0
369 135 5 3.5 1.1 2.0
370 136 5 4.5 2.2 2.0
371 136 3 4.0 2.2 2.0
372 136 5 3.5 2.2 2.0
373 137 5 4.5 3.3 2.0
374 137 3 4.0 3.3 2.0
375 137 5 3.5 3.3 2.0
376 138 5 4.5 4.4 2.0
377 138 3 4.0 4.4 2.0
378 138 5 3.5 4.4 2.0
379 139 5 4.5 5.5 2.0
380 139 3 4.0 5.5 2.0
381 139 5 3.5 5.5 2.0
382 140 5 4.5 6.6 2.0
383 140 3 4.0 6.6 2.0
384 140 5 3.5 6.6 2.0
385 141 5 4.5 7.7 2.0
386 141 3 4.0 7.7 2.0
387 141 5 3.5 7.7 2.0
388 142 5 4.5 8.8 2.0
389 142 3 4.0 8.8 2.0
390 142 5 3.5 8.8 2.0
391 143 5 4.5 9.9 2.0
392 143 3 4.0 9.9 2.0
393 143 5 3.5 9.9 2.0
394 144 5 4.5 11.0 2.0
395 144 3 4.0 11.0 2.0
396 144 5 3.5 11.0 2.0
397 146 8 5.0 -6.123233995736766e-17 4.0
398 146 2 4.0 0.0 4.0
399 146 6 3.0 6.123233995736766e-17 4.0
400 147 5 4.5 1.1 4.0
401 147 3 4.0 1.1 4.0
402 147 5 3.5 1.1 4.0
403 148 5 4.5 2.2 4.0
404 148 3 4.0 2.2 4.0
405 148 5 3.5 2.2 4.0
406 149 5 4.5 3.3 4.0
407 149 3 4.0 3.3 4.0
408 149 5 3.5 3.3 4.0
409 150 5 4.5 4.4 4.0
410 150 3 4.0 4.4 4.0
411 150 5 3.5 4.4 4.0
412 151 5 4.5 5.5 4.0
413 151 3 4.0 5.5 4.0
414 151 5 3.5 5.5 4.0
415 152 5 4.5 6.6 4.0
416 152 3 4.0 6.6 4.0
417 152 5 3.5 6.6 4.0
418 153 5 4.5 7.7 4.0
419 153 3 4.0 7.7 4.0
420 153 5 3.5 7.7 4.0
421 154 5 4.5 8.8 4.0
422 154 3 4.0 8.8 4.0
423 154 5 3.5 8.8 4.0
424 155 5 4.5 9.9 4.0
425 155 3 4.0 9.9 4.0
426 155 5 3.5 9.9 4.0
427 156 5 4.5 11.0 4.0
428 156 3 4.0 11.0 4.0
429 156 5 3.5 11.0 4.0
430 158 8 5.0 -6.123233995736766e-17 6.0
431 158 2 4.0 0.0 6.0
432 158 6 3.0 6.123233995736766e-17 6.0
433 159 5 4.5 1.1 6.0
434 159 3 4.0 1.1 6.0
435 159 5 3.5 1.1 6.0
436 160 5 4.5 2.2 6.0
437 160 3 4.0 2.2 6.0
438 160 5 3.5 2.2 6.0
439 161 5 4.5 3.3 6.0
440 161 3 4.0 3.3 6.0
441 161 5 3.5 3.3 6.0
442 162 5 4.5 4.4 6.0
443 162 3 4.0 4.4 6.0
444 162 5 3.5 4.4 6.0
445 163 5 4.5 5.5 6.0
446 163 3 4.0 5.5 6.0
447 163 5 3.5 5.5 6.0
448 164 5 4.5 6.6 6.0
449 164 3 4.0 6.6 6.0
450 164 5 3.5 6.6 6.0
451 165 5 4.5 7.7 6.0
452 165 3 4.0 7.7 6.0
453 165 5 3.5 7.7 6.0
454 166 5 4.5 8.8 6.0
455 166 3 4.0 8.8 6.0
456 166 5 3.5 8.8 6.0
457 167 5 4.5 9.9 6.0
458 167 3 4.0 9.9 6.0
459 167 5 3.5 9.9 6.0
460 168 5 4.5 11.0 6.0
461 168 3 4.0 11.0 6.0
462 168 5 3.5 11.0 6.0
463 170 8 5.0 -6.123233995736766e-17 8.0
464 170 2 4.0 0.0 8.0
465 170 6 3.0 6.123233995736766e-17 8.0
466 171 5 4.5 1.1 8.0
467 171 3 4.0 1.1 8.0
468 171 5 3.5 1.1 8.0
469 172 5 4.5 2.2 8.0
470 172 3 4.0 2.2 8.0
471 172 5 3.5 2.2 8.0
472 173 5 4.5 3.3 8.0
473 173 3 4.0 3.3 8.0
474 173 5 3.5 3.3 8.0
475 174 5 4.5 4.4 8.0
476 174 3 4.0 4.4 8.0
477 174 5 3.5 4.4 8.0
478 175 5 4.5 5.5 8.0
479 175 3 4.0 5.5 8.0
480 175 5 3.5 5.5 8.0
481 176 5 4.5 6.6 8.0
482 176 3 4.0 6.6 8.0
483 176 5 3.5 6.6 8.0
484 177 5 4.5 7.7 8.0
485 177 3 4.0 7.7 8.0
486 177 5 3.5 7.7 8.0
487 178 5 4.5 8.8 8.0
488 178 3 4.0 8.8 8.0
489 178 5 3.5 8.8 8.0
490 179 5 4.5 9.9 8.0
491 179 3 4.0 9.9 8.0
492 179 5 3.5 9.9 8.0
493 180 5 4.5 11.0 8.0
494 180 3 4.0 11.0 8.0
495 180 5 3.5 11.0 8.0
496 182 8 7.0 -6.123233995736766e-17 0.0
497 182 2 6.0 0.0 0.0
498 182 6 5.0 6.123233995736766e-17 0.0
499 183 5 6.5 1.1 0.0
500 183 3 6.0 1.1 0.0
501 183 5 5.5 1.1 0.0
502 184 5 6.5 2.2 0.0
503 184 3 6.0 2.2 0.0
504 184 5 5.5 2.2 0.0
505 185 5 6.5 3.3 0.0
506 185 3 6.0 3.3 0.0
507 185 5 5.5 3.3 0.0
508 186 5 6.5 4.4 0.0
509 186 3 6.0 4.4 0.0
510 186 5 5.5 4.4 0.0
511 187 5 6.5 5.5 0.0
512 187 3 6.0 5.5 0.0
513 187 5 5.5 5.5 0.0
514 188 5 6.5 6.6 0.0
515 188 3 6.0 6.6 0.0
516 188 5 5.5 6.6 0.0
517 189 5 6.5 7.7 0.0
518 189 3 6.0 7.7 0.0
519 189 5 5.5 7.7 0.0
520 190 5 6.5 8.8 0.0
521 190 3 6.0 8.8 0.0
522 190 5 5.5 8.8 0.0
523 191 5 6.5 9.9 0.0
524 191 3 6.0 9.9 0.0
525 191 5 5.5 9.9 0.0
526 192 5 6.5 11.0 0.0
527 192 3 6.0 11.0 0.0
528 192 5 5.5 11.0 0.0
529 194 8 7.0 -6.123233995736766e-17 2.0
530 194 2 6.0 0.0 2.0
531 194 6 5.0 6.123233995736766e-17 2.0
532 195 5 6.5 1.1 2.0
533 195 3 6.0 1.1 2.0
534 195 5 5.5 1.1 2.0
535 196 5 6.5 2.2 2.0
536 196 3 6.0 2.2 2.0
537 196 5 5.5 2.2 2.0
538 197 5 6.5 3.3 2.0
539 197 3 6.0 3.3 2.0
540 197 5 5.5 3.3 2.0
541 198 5 6.5 4.4 2.0
542 198 3 6.0 4.4 2.0
543 198 5 5.5 4.4 2.0
544 199 5 6.5 5.5 2.0
545 199 3 6.0 5.5 2.0
546 199 5 5.5 5.5 2.0
547 200 5 6.5 6.6 2.0
548 200 3 6.0 6.6 2.0
549 200 5 5.5 6.6 2.0
550 201 5 6.5 7.7 2.0
551 201 3 6.0 7.7 2.0
552 201 5 5.5 7.7 2.0
553 202 5 6.5 8.8 2.0
554 202 3 6.0 8.8 2.0
555 202 5 5.5 8.8 2.0
556 203 5 6.5 9.9 2.0
557 203 3 6.0 9.9 2.0
558 203 5 5.5 9.9 2.0
559 204 5 6.5 11.0 2.0
560 204 3 6.0 11.0 2.0
561 204 5 5.5 11.0 2.0
562 206 8 7.0 -6.123233995736766e-17 4.0
563 206 2 6.0 0.0 4.0
564 206 6 5.0 6.123233995736766e-17 4.0
565 207 5 6.5 1.1 4.0
566 207 3 6.0 1.1 4.0
567 207 5 5.5 1.1 4.0
568 208 5 6.5 2.2 4.0
569 208 3 6.0 2.2 4.0
570 208 5 5.5 2.2 4.0
571 209 5 6.5 3.3 4.0
572 209 3 6.0 3.3 4.0
573 209 5 5.5 3.3 4.0
574 210 5 6.5 4.4 4.0
575 210 3 6.0 4.4 4.0
576 210 5 5.5 4.4 4.0
577 211 5 6.5 5.5 4.0
578 211 3 6.0 5.5 4.0
579 211 5 5.5 5.5 4.0
580 212 5 6.5 6.6 4.0
581 212 3 6.0 6.6 4.0
582 212 5 5.5 6.6 4.0
583 213 5 6.5 7.7 4.0
584 213 3 6.0 7.7 4.0
585 213 5 5.5 7.7 4.0
586 214 5 6.5 8.8 4.0
587 214 3 6.0 8.8 4.0
588 214 5 5.5 8.8 4.0
589 215 5 6.5 9.9 4.0
590 215 3 6.0 9.9 4.0
591 215 5 5.5 9.9 4.0
592 216 5 6.5 11.0 4.0
593 216 3 6.0 11.0 4.0
594 216 5 5.5 11.0 4.0
595 218 8 7.0 -6.123233995736766e-17 6.0
596 218 2 6.0 0.0 6.0
597 218 6 5.0 6.123233995736766e-17 6.0
598 219 5 6.5 1.1 6.0
599 219 3 6.0 1.1 6.0
600 219 5 5.5 1.1 6.0
601 220 5 6.5 2.2 6.0
602 220 3 6.0 2.2 6.0
603 220 5 5.5 2.2 6.0
604 221 5 6.5 3.3 6.0
605 221 3 6.0 3.3 6.0
606 221 5 5.5 3.3 6.0
607 222 5 6.5 4.4 6.0
608 222 3 6.0 4.4 6.0
609 222 5 5.5 4.4 6.0
610 223 5 6.5 5.5 6.0
611 223 3 6.0 5.5 6.0
612 223 5 5.5 5.5 6.0
613 224 5 6.5 6.6 6.0
614 224 3 6.0 6.6 6.0
615 224 5 5.5 6.6 6.0
616 225 5 6.5 7.7 6.0
617 225 3 6.0 7.7 6.0
618 225 5 5.5 7.7 6.0
619 226 5 6.5 8.8 6.0
620 226 3 6.0 8.8 6.0
621 226 5 5.5 8.8 6.0
622 227 5 6.5 9.9 6.0
623 227 3 6.0 9.9 6.0
624 227 5 5.5 9.9 6.0
625 228 5 6.5 11.0 6.0
626 228 3 6.0 11.0 6.0
627 228 5 5.5 11.0 6.0
628 230 8 7.0 -6.123233995736766e-17 8.0
629 230 2 6.0 0.0 8.0
630 230 6 5.0 6.123233995736766e-17 8.0
631 231 5 6.5 1.1 8.0
632 231 3 6.0 1.1 8.0
633 231 5 5.5 1.1 8.0
634 232 5 6.5 2.2 8.0
635 232 3 6.0 2.2 8.0
636 232 5 5.5 2.2 8.0
637 233 5 6.5 3.3 8.0
638 233 3 6.0 3.3 8.0
639 233 5 5.5 3.3 8.0
640 234 5 6.5 4.4 8.0
641 234 3 6.0 4.4 8.0
642 234 5 5.5 4.4 8.0
643 235 5 6.5 5.5 8.0
644 235 3 6.0 5.5 8.0
645 235 5 5.5 5.5 8.0
646 236 5 6.5 6.6 8.0
647 236 3 6.0 6.6 8.0
648 236 5 5.5 6.6 8.0
649 237 5 6.5 7.7 8.0
650 237 3 6.0 7.7 8.0
651 237 5 5.5 7.7 8.0
652 238 5 6.5 8.8 8.0
653 238 3 6.0 8.8 8.0
654 238 5 5.5 8.8 8.0
655 239 5 6.5 9.9 8.0
656 239 3 6.0 9.9 8.0
657 239 5 5.5 9.9 8.0
658 240 5 6.5 11.0 8.0
659 240 3 6.0 11.0 8.0
660 240 5 5.5 11.0 8.0
661 242 8 9.0 -6.123233995736766e-17 0.0
662 242 2 8.0 0.0 0.0
663 242 6 7.0 6.123233995736766e-17 0.0
664 243 5 8.5 1.1 0.0
665 243 3 8.0 1.1 0.0
666 243 5 7.5 1.1 0.0
667 244 5 8.5 2.2 0.0
668 244 3 8.0 2.2 0.0
669 244 5 7.5 2.2 0.0
670 245 5 8.5 3.3 0.0
671 245 3 8.0 3.3 0.0
672 245 5 7.5 3.3 0.0
673 246 5 8.5 4.4 0.0
674 246 3 8.0 4.4 0.0
675 246 5 7.5 4.4 0.0
676 247 5 8.5 5.5 0.0
677 247 3 8.0 5.5 0.0
678 247 5 7.5 5.5 0.0
679 248 5 8.5 6.6 0.0
680 248 3 8.0 6.6 0.0
681 248 5 7.5 6.6 0.0
682 249 5 8.5 7.7 0.0
683 249 3 8.0 7.7 0.0
684 249 5 7.5 7.7 0.0
685 250 5 8.5 8.8 0.0
686 250 3 8.0 8.8 0.0
687 250 5 7.5 8.8 0.0
688 251 5 8.5 9.9 0.0
689 251 3 8.0 9.9 0.0
690 251 5 7.5 9.9 0.0
691 252 5 8.5 11.0 0.0
692 252 3 8.0 11.0 0.0
693 252 5 7.5 11.0 0.0
694 254 8 9.0 -6.123233995736766e-17 2.0
695 254 2 8.0 0.0 2.0
696 254 6 7.0 6.123233995736766e-17 2.0
697 255 5 8.5 1.1 2.0
698 255 3 8.0 1.1 2.0
699 255 5 7.5 1.1 2.0
700 256 5 8.5 2.2 2.0
701 256 3 8.0 2.2 2.0
702 256 5 7.5 2.2 2.0
703 257 5 8.5 3.3 2.0
704 257 3 8.0 3.3 2.0
705 257 5 7.5 3.3 2.0
706 258 5 8.5 4.4 2.0
707 258 3 8.0 4.4 2.0
708 258 5 7.5 4.4 2.0
709 259 5 8.5 5.5 2.0
710 259 3 8.0 5.5 2.0
711 259 5 7.5 5.5 2.0
712 260 5 8.5 6.6 2.0
713 260 3 8.0 6.6 2.0
714 260 5 7.5 6.6 2.0
715 261 5 8.5 7.7 2.0
716 261 3 8.0 7.7 2.0
717 261 5 7.5 7.7 2.0
718 262 5 8.5 8.8 2.0
719 262 3 8.0 8.8 2.0
720 262 5 7.5 8.8 2.0
721 263 5 8.5 9.9 2.0
722 263 3 8.0 9.9 2.0
723 263 5 7.5 9.9 2.0
724 264 5 8.5 11.0 2.0
725 264 3 8.0 11.0 2.0
726 264 5 7.5 11.0 2.0
727 266 8 9.0 -6.123233995736766e-17 4.0
728 266 2 8.0 0.0 4.0
729 266 6 7.0 6.123233995736766e-17 4.0
730 267 5 8.5 1.1 4.0
731 267 3 8.0 1.1 4.0
732 267 5 7.5 1.1 4.0
733 268 5 8.5 2.2 4.0
734 268 3 8.0 2.2 4.0
735 268 5 7.5 2.2 4.0
736 269 5 8.5 3.3 4.0
737 269 3 8.0 3.3 4.0
738 269 5 7.5 3.3 4.0
739 270 5 8.5 4.4 4.0
740 270 3 8.0 4.4 4.0
741 270 5 7.5 4.4 4.0
742 271 5 8.5 5.5 4.0
743 271 3 8.0 5.5 4.0
744 271 5 7.5 5.5 4.0
745 272 5 8.5 6.6 4.0
746 272 3 8.0 6.6 4.0
747 272 5 7.5 6.6 4.0
748 273 5 8.5 7.7 4.0
749 273 3 8.0 7.7 4.0
750 273 5 7.5 7.7 4.0
751 274 5 8.5 8.8 4.0
752 274 3 8.0 8.8 4.0
753 274 5 7.5 8.8 4.0
754 275 5 8.5 9.9 4.0
755 275 3 8.0 9.9 4.0
756 275 5 7.5 9.9 4.0
757 276 5 8.5 11.0 4.0
758 276 3 8.0 11.0 4.0
759 276 5 7.5 11.0 4.0
760 278 8 9.0 -6.123233995736766e-17 6.0
761 278 2 8.0 0.0 6.0
762 278 6 7.0 6.123233995736766e-17 6.0
763 279 5 8.5 1.1 6.0
764 279 3 8.0 1.1 6.0
765 279 5 7.5 1.1 6.0
766 280 5 8.5 2.2 6.0
767 280 3 8.0 2.2 6.0
768 280 5 7.5 2.2 6.0
769 281 5 8.5 3.3 6.0
770 281 3 8.0 3.3 6.0
771 281 5 7.5 3.3 6.0
772 282 5 8.5 4.4 6.0
773 282 3 8.0 4.4 6.0
774 282 5 7.5 4.4 6.0
775 283 5 8.5 5.5 6.0
776 283 3 8.0 5.5 6.0
777 283 5 7.5 5.5 6.0
778 284 5 8.5 6.6 6.0
779 284 3 8.0 6.6 6.0
780 284 5 7.5 6.6 6.0
781 285 5 8.5 7.7 6.0
782 285 3 8.0 7.7 6.0
783 285 5 7.5 7.7 6.0
784 286 5 8.5 8.8 6.0
785 286 3 8.0 8.8 6.0
786 286 5 7.5 8.8 6.0
787 287 5 8.5 9.9 6.0
788 287 3 8.0 9.9 6.0
789 287 5 7.5 9.9 6.0
790 288 5 8.5 11.0 6.0
791 288 3 8.0 11.0 6.0
792 288 5 7.5 11.0 6.0
793 290 8 9.0 -6.123233995736766e-17 8.0
794 290 2 8.0 0.0 8.0
795 290 6 7.0 6.123233995736766e-17 8.0
796 291 5 8.5 1.1 8.0
797 291 3 8.0 1.1 8.0
798 291 5 7.5 1.1 8.0
799 292 5 8.5 2.2 8.0
800 292 3 8.0 2.2 8.0
801 292 5 7.5 2.2 8.0
802 293 5 8.5 3.3 8.0
803 293 3 8.0 3.3 8.0
804 293 5 7.5 3.3 8.0
805 294 5 8.5 4.4 8.0
806 294 3 8.0 4.4 8.0
807 294 5 7.5 4.4 8.0
808 295 5 8.5 5.5 8.0
809 295 3 8.0 5.5 8.0
810 295 5 7.5 5.5 8.0
811 296 5 8.5 6.6 8.0
812 296 3 8.0 6.6 8.0
813 296 5 7.5 6.6 8.0
814 297 5 8.5 7.7 8.0
815 297 3 8.0 7.7 8.0
816 297 5 7.5 7.7 8.0
817 298 5 8.5 8.8 8.0
818 298 3 8.0 8.8 8.0
819 298 5 7.5 8.8 8.0
820 299 5 8.5 9.9 8.0
821 299 3 8.0 9.9 8.0
822 299 5 7.5 9.9 8.0
823 300 5 8.5 11.0 8.0
824 300 3 8.0 11.0 8.0
825 300 5 7.5 11.0 8.0
826 302 8 1.0 -6.123233995736766e-17 -3.0
827 302 2 0.0 0.0 -3.0
828 302 6 -1.0 6.123233995736766e-17 -3.0
829 303 5 0.5 1.1 -3.0
830 303 4 0.0 1.1 -3.0
831 303 5 -0.5 1.1 -3.0
832 304 5 0.5 2.2 -3.0
833 304 4 0.0 2.2 -3.0
834 304 5 -0.5 2.2 -3.0
835 305 5 0.5 3.3 -3.0
836 305 4 0.0 3.3 -3.0
837 305 5 -0.5 3.3 -3.0
838 306 5 0.5 4.4 -3.0
839 306 4 0.0 4.4 -3.0
840 306 5 -0.5 4.4 -3.0
841 307 5 0.5 5.5 -3.0
842 307 4 0.0 5.5 -3.0
843 307 5 -0.5 5.5 -3.0
844 308 5 0.5 6.6 -3.0
845 308 4 0.0 6.6 -3.0
846 308 5 -0.5 6.6 -3.0
847 309 5 0.5 7.7 -3.0
848 309 4 0.0 7.7 -3.0
849 309 5 -0.5 7.7 -3.0
850 310 5 0.5 8.8 -3.0
851 310 4 0.0 8.8 -3.0
852 310 5 -0.5 8.8 -3.0
853 311 5 0.5 9.9 -3.0
854 311 4 0.0 9.9 -3.0
855 311 5 -0.5 9.9 -3.0
856 312 5 0.5 11.0 -3.0
857 312 4 0.0 11.0 -3.0
858 312 5 -0.5 11.0 -3.0
859 314 8 1.0 -6.123233995736766e-17 -1.0
860 314 2 0.0 0.0 -1.0
861 314 6 -1.0 6.123233995736766e-17 -1.0
862 315 5 0.5 1.1 -1.0
863 315 4 0.0 1.1 -1.0
864 315 5 -0.5 1.1 -1.0
865 316 5 0.5 2.2 -1.0
866 316 4 0.0 2.2 -1.0
867 316 5 -0.5 2.2 -1.0
868 317 5 0.5 3.3 -1.0
869 317 4 0.0 3.3 -1.0
870 317 5 -0.5 3.3 -1.0
871 318 5 0.5 4.4 -1.0
872 318 4 0.0 4.4 -1.0
873 318 5 -0.5 4.4 -1.0
874 319 5 0.5 5.5 -1.0
875 319 4 0.0 5.5 -1.0
876 319 5 -0.5 5.5 -1.0
877 320 5 0.5 6.6 -1.0
878 320 4 0.0 6.6 -1.0
879 320 5 -0.5 6.6 -1.0
880 321 5 0.5 7.7 -1.0
881 321 4 0.0 7.7 -1.0
882 321 5 -0.5 7.7 -1.0
883 322 5 0.5 8.8 -1.0
884 322 4 0.0 8.8 -1.0
885 322 5 -0.5 8.8 -1.0
886 323 5 0.5 9.9 -1.0
887 323 4 0.0 9.9 -1.0
888 323 5 -0.5 9.9 -1.0
889 324 5 0.5 11.0 -1.0
890 324 4 0.0 11.0 -1.0
891 324 5 -0.5 11.0 -1.0
892 326 8 1.0 -6.123233995736766e-17 1.0
893 326 2 0.0 0.0 1.0
894 326 6 -1.0 6.123233995736766e-17 1.0
895 327 5 0.5 1.1 1.0
896 327 4 0.0 1.1 1.0
897 327 5 -0.5 1.1 1.0
898 328 5 0.5 2.2 1.0
899 328 4 0.0 2.2 1.0
900 328 5 -0.5 2.2 1.0
901 329 5 0.5 3.3 1.0
902 329 4 0.0 3.3 1.0
903 329 5 -0.5 3.3 1.0
904 330 5 0.5 4.4 1.0
905 330 4 0.0 4.4 1.0
906 330 5 -0.5 4.4 1.0
907 331 5 0.5 5.5 1.0
908 331 4 0.0 5.5 1.0
909 331 5 -0.5 5.5 1.0
910 332 5 0.5 6.6 1.0
911 332 4 0.0 6.6 1.0
912 332 5 -0.5 6.6 1.0
913 333 5 0.5 7.7 1.0
914 333 4 0.0 7.7 1.0
915 333 5 -0.5 7.7 1.0
916 334 5 0.5 8.8 1.0
917 334 4 0.0 8.8 1.0
918 334 5 -0.5 8.8 1.0
919 335 5 0.5 9.9 1.0
920 335 4 0.0 9.9 1.0
921 335 5 -0.5 9.9 1.0
922 336 5 0.5 11.0 1.0
923 336 4 0.0 11.0 1.0
924 336 5 -0.5 11.0 1.0
925 338 8 1.0 -6.123233995736766e-17 3.0
926 338 2 0.0 0.0 3.0
927 338 6 -1.0 6.123233995736766e-17 3.0
928 339 5 0.5 1.1 3.0
929 339 4 0.0 1.1 3.0
930 339 5 -0.5 1.1 3.0
931 340 5 0.5 2.2 3.0
932 340 4 0.0 2.2 3.0
933 340 5 -0.5 2.2 3.0
934 341 5 0.5 3.3 3.0
935 341 4 0.0 3.3 3.0
936 341 5 -0.5 3.3 3.0
937 342 5 0.5 4.4 3.0
938 342 4 0.0 4.4 3.0
939 342 5 -0.5 4.4 3.0
940 343 5 0.5 5.5 3.0
941 343 4 0.0 5.5 3.0
942 343 5 -0.5 5.5 3.0
943 344 5 0.5 6.6 3.0
944 344 4 0.0 6.6 3.0
945 344 5 -0.5 6.6 3.0
946 345 5 0.5 7.7 3.0
947 345 4 0.0 7.7 3.0
948 345 5 -0.5 7.7 3.0
949 346 5 0.5 8.8 3.0
950 346 4 0.0 8.8 3.0
951 346 5 -0.5 8.8 3.0
952 347 5 0.5 9.9 3.0
953 347 4 0.0 9.9 3.0
954 347 5 -0.5 9.9 3.0
955 348 5 0.5 11.0 3.0
956 348 4 0.0 11.0 3.0
957 348 5 -0.5 11.0 3.0
958 350 8 1.0 -6.123233995736766e-17 5.0
959 350 2 0.0 0.0 5.0
960 350 6 -1.0 6.123233995736766e-17 5.0
961 351 5 0.5 1.1 5.0
962 351 4 0.0 1.1 5.0
963 351 5 -0.5 1.1 5.0
964 352 5 0.5 2.2 5.0
965 352 4 0.0 2.2 5.0
966 352 5 -0.5 2.2 5.0
967 353 5 0.5 3.3 5.0
968 353 4 0.0 3.3 5.0
969 353 5 -0.5 3.3 5.0
970 354 5 0.5 4.4 5.0
971 354 4 0.0 4.4 5.0
972 354 5 -0.5 4.4 5.0
973 355 5 0.5 5.5 5.0
974 355 4 0.0 5.5 5.0
975 355 5 -0.5 5.5 5.0
976 356 5 0.5 6.6 5.0
977 356 4 0.0 6.6 5.0
978 356 5 -0.5 6.6 5.0
979 357 5 0.5 7.7 5.0
980 357 4 0.0 7.7 5.0
981 357 5 -0.5 7.7 5.0
982 358 5 0.5 8.8 5.0
983 358 4 0.0 8.8 5.0
984 358 5 -0.5 8.8 5.0
985 359 5 0.5 9.9 5.0
986 359 4 0.0 9.9 5.0
987 359 5 -0.5 9.9 5.0
988 360 5 0.5 11.0 5.0
989 360 4 0.0 11.0 5.0
990 360 5 -0.5 11.0 5.0
991 362 8 -1.0 -6.123233995736766e-17 -3.0
992 362 2 -2.0 0.0 -3.0
993 362 6 -3.0 6.123233995736766e-17 -3.0
994 363 5 -1.5 1.1 -3.0
995 363 4 -2.0 1.1 -3.0
996 363 5 -2.5 1.1 -3.0
997 364 5 -1.5 2.2 -3.0
998 364 4 -2.0 2.2 -3.0
999 364 5 -2.5 2.2 -3.0
1000 365 5 -1.5 3.3 -3.0
1001 365 4 -2.0 3.3 -3.0
1002 365 5 -2.5 3.3 -3.0
1003 366 5 -1.5 4.4 -3.0
1004 366 4 -2.0 4.4 -3.0
1005 366 5 -2.5 4.4 -3.0
1006 367 5 -1.5 5.5 -3.0
1007 367 4 -2.0 5.5 -3.0
1008 367 5 -2.5 5.5 -3.0
1009 368 5 -1.5 6.6 -3.0
1010 368 4 -2.0 6.6 -3.0
1011 368 5 -2.5 6.6 -3.0
1012 369 5 -1.5 7.7 -3.0
1013 369 4 -2.0 7.7 -3.0
1014 369 5 -2.5 7.7 -3.0
1015 370 5 -1.5 8.8 -3.0
1016 370 4 -2.0 8.8 -3.0
1017 370 5 -2.5 8.8 -3.0
1018 371 5 -1.5 9.9 -3.0
1019 371 4 -2.0 9.9 -3.0
1020 371 5 -2.5 9.9 -3.0
1021 372 5 -1.5 11.0 -3.0
1022 372 4 -2.0 11.0 -3.0
1023 372 5 -2.5 11.0 -3.0
1024 374 8 -1.0 -6.123233995736766e-17 -1.0
1025 374 2 -2.0 0.0 -1.0
1026 374 6 -3.0 6.123233995736766e-17 -1.0
1027 375 5 -1.5 1.1 -1.0
1028 375 4 -2.0 1.1 -1.0
1029 375 5 -2.5 1.1 -1.0
1030 376 5 -1.5 2.2 -1.0
1031 376 4 -2.0 2.2 -1.0
1032 376 5 -2.5 2.2 -1.0
1033 377 5 -1.5 3.3 -1.0
1034 377 4 -2.0 3.3 -1.0
1035 377 5 -2.5 3.3 -1.0
1036 378 5 -1.5 4.4 -1.0
1037 378 4 -2.0 4.4 -1.0
1038 378 5 -2.5 4.4 -1.0
1039 379 5 -1.5 5.5 -1.0
1040 379 4 -2.0 5.5 -1.0
1041 379 5 -2.5 5.5 -1.0
1042 380 5 -1.5 6.6 -1.0
1043 380 4 -2.0 6.6 -1.0
1044 380 5 -2.5 6.6 -1.0
1045 381 5 -1.5 7.7 -1.0
1046 381 4 -2.0 7.7 -1.0
1047 381 5 -2.5 7.7 -1.0
1048 382 5 -1.5 8.8 -1.0
1049 382 4 -2.0 8.8 -1.0
1050 382 5 -2.5 8.8 -1.0
1051 383 5 -1.5 9.9 -1.0
1052 383 4 -2.0 9.9 -1.0
1053 383 5 -2.5 9.9 -1.0
1054 384 5 -1.5 11.0 -1.0
1055 384 4 -2.0 11.0 -1.0
1056 384 5 -2.5 11.0 -1.0
1057 386 8 -1.0 -6.123233995736766e-17 1.0
1058 386 2 -2.0 0.0 1.0
1059 386 6 -3.0 6.123233995736766e-17 1.0
1060 387 5 -1.5 1.1 1.0
1061 387 4 -2.0 1.1 1.0
1062 387 5 -2.5 1.1 1.0
1063 388 5 -1.5 2.2 1.0
1064 388 4 -2.0 2.2 1.0
1065 388 5 -2.5 2.2 1.0
1066 389 5 -1.5 3.3 1.0
1067 389 4 -2.0 3.3 1.0
1068 389 5 -2.5 3.3 1.0
1069 390 5 -1.5 4.4 1.0
1070 390 4 -2.0 4.4 1.0
1071 390 5 -2.5 4.4 1.0
1072 391 5 -1.5 5.5 1.0
1073 391 4 -2.0 5.5 1.0
1074 391 5 -2.5 5.5 1.0
1075 392 5 -1.5 6.6 1.0
1076 392 4 -2.0 6.6 1.0
1077 392 5 -2.5 6.6 1.0
1078 393 5 -1.5 7.7 1.0
1079 393 4 -2.0 7.7 1.0
1080 393 5 -2.5 7.7 1.0
1081 394 5 -1.5 8.8 1.0
1082 394 4 -2.0 8.8 1.0
1083 394 5 -2.5 8.8 1.0
1084 395 5 -1.5 9.9 1.0
1085 395 4 -2.0 9.9 1.0
1086 395 5 -2.5 9.9 1.0
1087 396 5 -1.5 11.0 1.0
1088 396 4 -2.0 11.0 1.0
1089 396 5 -2.5 11.0 1.0
1090 398 8 -1.0 -6.123233995736766e-17 3.0
1091 398 2 -2.0 0.0 3.0
1092 398 6 -3.0 6.123233995736766e-17 3.0
1093 399 5 -1.5 1.1 3.0
1094 399 4 -2.0 1.1 3.0
1095 399 5 -2.5 1.1 3.0
1096 400 5 -1.5 2.2 3.0
1097 400 4 -2.0 2.2 3.0
1098 400 5 -2.5 2.2 3.0
1099 401 5 -1.5 3.3 3.0
1100 401 4 -2.0 3.3 3.0
1101 401 5 -2.5 3.3 3.0
1102 402 5 -1.5 4.4 3.0
1103 402 4 -2.0 4.4 3.0
1104 402 5 -2.5 4.4 3.0
1105 403 5 -1.5 5.5 3.0
1106 403 4 -2.0 5.5 3.0
1107 403 5 -2.5 5.5 3.0
1108 404 5 -1.5 6.6 3.0
1109 404 4 -2.0 6.6 3.0
1110 404 5 -2.5 6.6 3.0
1111 405 5 -1.5 7.7 3.0
1112 405 4 -2.0 7.7 3.0
1113 405 5 -2.5 7.7 3.0
1114 406 5 -1.5 8.8 3.0
1115 406 4 -2.0 8.8 3.0
1116 406 5 -2.5 8.8 3.0
1117 407 5 -1.5 9.9 3.0
1118 407 4 -2.0 9.9 3.0
1119 407 5 -2.5 9.9 3.0
1120 408 5 -1.5 11.0 3.0
1121 408 4 -2.0 11.0 3.0
1122 408 5 -2.5 11.0 3.0
1123 410 8 -1.0 -6.123233995736766e-17 5.0
1124 410 2 -2.0 0.0 5.0
1125 410 6 -3.0 6.123233995736766e-17 5.0
1126 411 5 -1.5 1.1 5.0
1127 411 4 -2.0 1.1 5.0
1128 411 5 -2.5 1.1 5.0
1129 412 5 -1.5 2.2 5.0
1130 412 4 -2.0 2.2 5.0
1131 412 5 -2.5 2.2 5.0
1132 413 5 -1.5 3.3 5.0
1133 413 4 -2.0 3.3 5.0
1134 413 5 -2.5 3.3 5.0
1135 414 5 -1.5 4.4 5.0
1136 414 4 -2.0 4.4 5.0
1137 414 5 -2.5 4.4 5.0
1138 415 5 -1.5 5.5 5.0
1139 415 4 -2.0 5.5 5.0
1140 415 5 -2.5 5.5 5.0
1141 416 5 -1.5 6.6 5.0
1142 416 4 -2.0 6.6 5.0
1143 416 5 -2.5 6.6 5.0
1144 417 5 -1.5 7.7 5.0
1145 417 4 -2.0 7.7 5.0
1146 417 5 -2.5 7.7 5.0
1147 418 5 -1.5 8.8 5.0
1148 418 4 -2.0 8.8 5.0
1149 418 5 -2.5 8.8 5.0
1150 419 5 -1.5 9.9 5.0
1151 419 4 -2.0 9.9 5.0
1152 419 5 -2.5 9.9 5.0
1153 420 5 -1.5 11.0 5.0
1154 420 4 -2.0 11.0 5.0
1155 420 5 -2.5 11.0 5.0
1156 422 8 -3.0 -6.123233995736766e-17 -3.0
1157 422 2 -4.0 0.0 -3.0
1158 422 6 -5.0 6.123233995736766e-17 -3.0
1159 423 5 -3.5 1.1 -3.0
1160 423 4 -4.0 1.1 -3.0
1161 423 5 -4.5 1.1 -3.0
1162 424 5 -3.5 2.2 -3.0
1163 424 4 -4.0 2.2 -3.0
1164 424 5 -4.5 2.2 -3.0
1165 425 5 -3.5 3.3 -3.0
1166 425 4 -4.0 3.3 -3.0
1167 425 5 -4.5 3.3 -3.0
1168 426 5 -3.5 4.4 -3.0
1169 426 4 -4.0 4.4 -3.0
1170 426 5 -4.5 4.4 -3.0
1171 427 5 -3.5 5.5 -3.0
1172 427 4 -4.0 5.5 -3.0
1173 427 5 -4.5 5.5 -3.0
1174 428 5 -3.5 6.6 -3.0
1175 428 4 -4.0 6.6 -3.0
1176 428 5 -4.5 6.6 -3.0
1177 429 5 -3.5 7.7 -3.0
1178 429 4 -4.0 7.7 -3.0
1179 429 5 -4.5 7.7 -3.0
1180 430 5 -3.5 8.8 -3.0
1181 430 4 -4.0 8.8 -3.0
1182 430 5 -4.5 8.8 -3.0
1183 431 5 -3.5 9.9 -3.0
1184 431 4 -4.0 9.9 -3.0
1185 431 5 -4.5 9.9 -3.0
1186 432 5 -3.5 11.0 -3.0
1187 432 4 -4.0 11.0 -3.0
1188 432 5 -4.5 11.0 -3.0
1189 434 8 -3.0 -6.123233995736766e-17 -1.0
1190 434 2 -4.0 0.0 -1.0
1191 434 6 -5.0 6.123233995736766e-17 -1.0
1192 435 5 -3.5 1.1 -1.0
1193 435 4 -4.0 1.1 -1.0
1194 435 5 -4.5 1.1 -1.0
1195 436 5 -3.5 2.2 -1.0
1196 436 4 -4.0 2.2 -1.0
1197 436 5 -4.5 2.2 -1.0
1198 437 5 -3.5 3.3 -1.0
1199 437 4 -4.0 3.3 -1.0
1200 437 5 -4.5 3.3 -1.0
1201 438 5 -3.5 4.4 -1.0
1202 438 4 -4.0 4.4 -1.0
1203 438 5 -4.5 4.4 -1.0
1204 439 5 -3.5 5.5 -1.0
1205 439 4 -4.0 5.5 -1.0
1206 439 5 -4.5 5.5 -1.0
1207 440 5 -3.5 6.6 -1.0
1208 440 4 -4.0 6.6 -1.0
1209 440 5 -4.5 6.6 -1.0
1210 441 5 -3.5 7.7 -1.0
1211 441 4 -4.0 7.7 -1.0
1212 441 5 -4.5 7.7 -1.0
1213 442 5 -3.5 8.8 -1.0
1214 442 4 -4.0 8.8 -1.0
1215 442 5 -4.5 8.8 -1.0
1216 443 5 -3.5 9.9 -1.0
1217 443 4 -4.0 9.9 -1.0
1218 443 5 -4.5 9.9 -1.0
1219 444 5 -3.5 11.0 -1.0
1220 444 4 -4.0 11.0 -1.0
1221 444 5 -4.5 11.0 -1.0
1222 446 8 -3.0 -6.123233995736766e-17 1.0
1223 446 2 -4.0 0.0 1.0
1224 446 6 -5.0 6.123233995736766e-17 1.0
1225 447 5 -3.5 1.1 1.0
1226 447 4 -4.0 1.1 1.0
1227 447 5 -4.5 1.1 1.0
1228 448 5 -3.5 2.2 1.0
1229 448 4 -4.0 2.2 1.0
1230 448 5 -4.5 2.2 1.0
1231 449 5 -3.5 3.3 1.0
1232 449 4 -4.0 3.3 1.0
1233 449 5 -4.5 3.3 1.0
1234 450 5 -3.5 4.4 1.0
1235 450 4 -4.0 4.4 1.0
1236 450 5 -4.5 4.4 1.0
1237 451 5 -3.5 5.5 1.0
1238 451 4 -4.0 5.5 1.0
1239 451 5 -4.5 5.5 1.0
1240 452 5 -3.5 6.6 1.0
1241 452 4 -4.0 6.6 1.0
1242 452 5 -4.5 6.6 1.0
1243 453 5 -3.5 7.7 1.0
1244 453 4 -4.0 7.7 1.0
1245 453 5 -4.5 7.7 1.0
1246 454 5 -3.5 8.8 1.0
1247 454 4 -4.0 8.8 1.0
1248 454 5 -4.5 8.8 1.0
1249 455 5 -3.5 9.9 1.0
1250 455 4 -4.0 9.9 1.0
1251 455 5 -4.5 9.9 1.0
1252 456 5 -3.5 11.0 1.0
1253 456 4 -4.0 11.0 1.0
1254 456 5 -4.5 11.0 1.0
1255 458 8 -3.0 -6.123233995736766e-17 3.0
1256 458 2 -4.0 0.0 3.0
1257 458 6 -5.0 6.123233995736766e-17 3.0