LAMMPS (5 Jun 2019)
OMP_NUM_THREADS environment is not set. Defaulting to 1 thread. (src/comm.cpp:88)
  using 1 OpenMP thread(s) per MPI task


# ----------------- Init Section -----------------

include "system.in.init"
        units lj
        atom_style angle
        pair_style hybrid lj/expand/twopiece 2.5 soft/shift 0.3 zero 1 morse 2.5
        bond_style hybrid harmonic
        angle_style hybrid harmonic
        special_bonds lj 0.0 0.0 0.0


# ----------------- Atom Definition Section -----------------

read_data "system.data"
  orthogonal box = (-20 -20 -20) to (20 20 20)
  1 by 1 by 1 MPI processor grid
  reading atoms ...
  1650 atoms
  scanning bonds ...
  1 = max bonds/atom
  scanning angles ...
  1 = max angles/atom
  reading bonds ...
  1600 bonds
  reading angles ...
  1450 angles
  2 = max # of 1-2 neighbors
  2 = max # of 1-3 neighbors
  4 = max # of 1-4 neighbors
  6 = max # of special neighbors
  special bonds CPU = 0.00454916 secs
  read_data CPU = 0.0212367 secs

# ----------------- Settings Section -----------------

include "system.in.settings"
       pair_coeff 2 2 lj/expand/twopiece 0.5 1 0.5 0.
        pair_coeff 3 3 lj/expand/twopiece 1.0 1 0.5 0.
        pair_coeff 4 4 lj/expand/twopiece 1.0 1 0.5 0.
        pair_coeff 3 4 lj/expand/twopiece 1.0 1 0.5 0.
        pair_coeff 2 3 lj/expand/twopiece 0.5 1 0.5 0.
        pair_coeff 2 4 lj/expand/twopiece 0.5 1 0.5 0.

        pair_coeff 5 5 soft/shift 1.5 0.2
pair_coeff 2 5 zero
pair_coeff 1 5 zero
pair_coeff 3 5 zero
pair_coeff 4 5 zero

        pair_coeff 8 8 lj/expand/twopiece 0.5 1 0.5 0.
pair_coeff 5 8 lj/expand/twopiece 0.5 1 0.5 0.
pair_coeff 2 8 zero
pair_coeff 1 8 morse 100 4 0.5
pair_coeff 3 8 zero
pair_coeff 4 8 zero
pair_coeff 6 8 zero
pair_coeff 7 8 zero

        pair_coeff 6 6 soft/shift 1.5 0.2
pair_coeff 2 6 zero
pair_coeff 1 6 zero
pair_coeff 3 6 zero
pair_coeff 4 6 zero
        pair_coeff 6 7 soft/shift 1.5 0.2

        pair_coeff 7 7 soft/shift 1.5 0.2
pair_coeff 2 7 zero
pair_coeff 1 7 zero
pair_coeff 3 7 zero
pair_coeff 4 7 zero

        pair_coeff 1 1 lj/expand/twopiece 0.5 1 0.8 0.
        pair_coeff 1 2 lj/expand/twopiece 0.5 1 0.8 0.
        pair_coeff 1 3 lj/expand/twopiece 0.5 1 0.8 0.
        pair_coeff 1 4 lj/expand/twopiece 0.5 1 0.8 0.


        bond_coeff 1 harmonic 1000 0.4
        bond_coeff 2 harmonic 1000 0.4
        bond_coeff 3 harmonic 1000 0.15

        angle_coeff 1 harmonic 20 180
        angle_coeff 2 harmonic 20 180
        angle_coeff 3 harmonic 20 180
        angle_coeff 4 harmonic 20 180


# ----------------- Run Section -----------------

include "system.in.run"
  compute bcomp all property/local btype batom1 batom2
  dump dxyz all atom 1000 poly.lammpstrj
  dump bdump all local 1000 bonddump.dump c_bcomp[1] c_bcomp[2] c_bcomp[3]

  thermo 200
  minimize 1.0e-6 1.0e-8 10000 100000
WARNING: Using 'neigh_modify every 1 delay 0 check yes' setting during minimization (src/min.cpp:168)
Neighbor list info ...
  update every 1 steps, delay 0 steps, check yes
  max neighbors/atom: 2000, page size: 100000
  master list distance cutoff = 2.8
  ghost atom cutoff = 2.8
  binsize = 1.4, bins = 29 29 29
  5 neighbor lists, perpetual/occasional/extra = 5 0 0
  (1) pair lj/expand/twopiece, perpetual, skip from (5)
      attributes: half, newton on
      pair build: skip
      stencil: none
      bin: none
  (2) pair soft/shift, perpetual, skip from (5)
      attributes: half, newton on
      pair build: skip
      stencil: none
      bin: none
  (3) pair zero, perpetual, skip from (5)
      attributes: half, newton on
      pair build: skip
      stencil: none
      bin: none
  (4) pair morse, perpetual, skip from (5)
      attributes: half, newton on
      pair build: skip
      stencil: none
      bin: none
  (5) neighbor class addition, perpetual
      attributes: half, newton on
      pair build: half/bin/newton
      stencil: half/bin/3d/newton
      bin: standard
Per MPI rank memory allocation (min/avg/max) = 10.29 | 10.29 | 10.29 Mbytes
Step Temp E_pair E_mol TotEng Press 
       0            0 -0.0048751927    661.87322    661.86835   -12.116949 
     200            0 -0.0056512701 0.00021432105 -0.0054369491 -0.00038382889 
     299            0 -0.017882993 7.2700533e-05 -0.017810292 -0.00017870115 
Loop time of 0.500578 on 1 procs for 299 steps with 1650 atoms

99.2% CPU use with 1 MPI tasks x 1 OpenMP threads

Minimization stats:
  Stopping criterion = energy tolerance
  Energy initial, next-to-last, final = 
         661.868347049   -0.0178102755134   -0.0178102921711
  Force two-norm initial, final = 97619.7 26.9054
  Force max component initial, final = 3958.08 3.4372
  Final line search alpha, max atom move = 0.00363516 0.0124948
  Iterations, force evaluations = 299 1235

MPI task timing breakdown:
Section |  min time  |  avg time  |  max time  |%varavg| %total
---------------------------------------------------------------
Pair    | 0.19525    | 0.19525    | 0.19525    |   0.0 | 39.00
Bond    | 0.20666    | 0.20666    | 0.20666    |   0.0 | 41.28
Neigh   | 0.061339   | 0.061339   | 0.061339   |   0.0 | 12.25
Comm    | 0.0016577  | 0.0016577  | 0.0016577  |   0.0 |  0.33
Output  | 0.00041665 | 0.00041665 | 0.00041665 |   0.0 |  0.08
Modify  | 0          | 0          | 0          |   0.0 |  0.00
Other   |            | 0.03526    |            |       |  7.04

Nlocal:    1650 ave 1650 max 1650 min
Histogram: 1 0 0 0 0 0 0 0 0 0
Nghost:    0 ave 0 max 0 min
Histogram: 1 0 0 0 0 0 0 0 0 0
Neighs:    5868 ave 5868 max 5868 min
Histogram: 1 0 0 0 0 0 0 0 0 0

Total # of neighbors = 5868
Ave neighs/atom = 3.55636
Ave special neighs/atom = 5.63636
Neighbor list builds = 45
Dangerous builds = 0
  timestep 0.001
  velocity all create 3.0 49840
  fix   fxnvt all nvt temp 3.0 3.0 500.0
  run   500000
Neighbor list info ...
  update every 1 steps, delay 10 steps, check yes
  max neighbors/atom: 2000, page size: 100000
  master list distance cutoff = 2.8
  ghost atom cutoff = 2.8
  binsize = 1.4, bins = 29 29 29
  5 neighbor lists, perpetual/occasional/extra = 5 0 0
  (1) pair lj/expand/twopiece, perpetual, skip from (5)
      attributes: half, newton on
      pair build: skip
      stencil: none
      bin: none
  (2) pair soft/shift, perpetual, skip from (5)
      attributes: half, newton on
      pair build: skip
      stencil: none
      bin: none
  (3) pair zero, perpetual, skip from (5)
      attributes: half, newton on
      pair build: skip
      stencil: none
      bin: none
  (4) pair morse, perpetual, skip from (5)
      attributes: half, newton on
      pair build: skip
      stencil: none
      bin: none
  (5) neighbor class addition, perpetual
      attributes: half, newton on
      pair build: half/bin/newton
      stencil: half/bin/3d/newton
      bin: standard
Per MPI rank memory allocation (min/avg/max) = 10.28 | 10.28 | 10.28 Mbytes
Step Temp E_pair E_mol TotEng Press 
     299            3 -0.017882993 7.2700533e-05    4.4794624  0.077118174 
     400    1.7182975 -0.012829958       1.9233    4.4863541  -0.02577172 
     600    1.7175113 -0.016829055    1.9286336    4.4865102 -0.0043455979 
     800    1.6995845 -0.030182521    1.9696205    4.4872696  0.036422403 
    1000    1.6260303  -0.04725405    2.0968362    4.4871494  0.011835691 
    1200    1.6869007 -0.054088216    2.0129858    4.4877151 -0.001912598 
    1400    1.6086106 -0.068498422    2.1441623    4.4871174 0.0093671503 
    1600    1.6539872 -0.081273475    2.0890471    4.4872508     0.010378 
    1800    1.6414306 -0.091762956    2.1185114    4.4874021 -0.0040489894 
    2000    1.6010467 -0.075200782    2.1626711     4.487585 0.0045220326 
    2200    1.5809137 -0.079607229    2.1972701    4.4875963 -0.0015964695 
    2400    1.5700719 -0.076453211    2.2115952    4.4888225 -0.0099680978 
    2600     1.607742 -0.086593679     2.165131    4.4886887 0.0012359567 
    2800    1.6345833 -0.083827419    2.1223805    4.4889421  0.013273515 
    3000    1.5863981 -0.082384485    2.1933204    4.4890908 -0.0016448141 
    3200    1.5918515 -0.074446382    2.1774077    4.4892915 0.0040928441 
    3400     1.587301 -0.068933207    2.1790646      4.48964 0.0017558043 
    3600    1.6020839 -0.062809216    2.1505781    4.4894383  0.003571408 
    3800    1.6442598 -0.067428956    2.0919849    4.4894509 -0.00030712173 
    4000    1.5989008 -0.065882459    2.1584725    4.4894877 -0.00053023497 
    4200    1.5782512 -0.062641947    2.1863335    4.4896336 0.0028027706 
    4400    1.5709551 -0.067565433    2.2014591    4.4888981 -0.0038684874 
    4600    1.6263088 -0.053623125    2.1038101    4.4881718 0.0061006668 
    4800    1.5830337 -0.056428575    2.1718497    4.4885325 -0.0024998246 
    5000     1.642194 -0.050267865    2.0772356    4.4887658 -0.00024435562 
    5200    1.5598691 -0.057781469    2.2081479     4.488752 -0.0010588942 
    5400    1.6149764  -0.05430361    2.1224217    4.4891145 0.0070589474 
    5600    1.6093623 -0.054297586       2.1299    4.4881828 0.0017173175 
    5800    1.5863448 -0.055295551    2.1667821    4.4895616 -0.004317764 
    6000    1.6142557 -0.061595794    2.1303054    4.4886257 0.0070183289 
    6200    1.5953837 -0.058872373    2.1560941    4.4888468 0.00043691763 
    6400    1.6227093  -0.05727844    2.1138669    4.4891772 0.0046943481 
    6600    1.6117431 -0.056058027    2.1285259    4.4886173 -0.00093612184 
    6800    1.6064356 -0.057983357    2.1383045    4.4885142 -0.0031431216 
    7000    1.5962243 -0.052248432    2.1479709    4.4886077 0.0037316905 
    7200    1.6062702 -0.050862408    2.1318611    4.4889437 -0.0021789545 
    7400    1.5760759 -0.053158889     2.179599    4.4891212 0.0029292181 
    7600    1.6128025 -0.054921048    2.1265052    4.4893217 0.0056977414 
    7800    1.6163386 -0.055504721    2.1223765    4.4899103 0.0073322019 
    8000    1.5945189 -0.047029427    2.1460959    4.4893952 0.00094063471 
    8200    1.5855622 -0.036435186    2.1487012    4.4891678 -0.00059733018 
    8400    1.5589742 -0.034100216    2.1866124    4.4895563 0.0017455391 
    8600    1.5952026 -0.043235494    2.1414137    4.4895319 0.0032270981 
    8800    1.5941854 -0.044793754    2.1446868    4.4897219 0.0017155043 
    9000    1.6086507 -0.044835921    2.1226867    4.4893644 0.0046449388 
    9200    1.6197336  -0.04834522    2.1095276    4.4893103 -0.00038739954 
    9400    1.6083918 -0.048329605    2.1261896    4.4889855 0.0008818871 
    9600    1.5896056 -0.040528528    2.1465265    4.4889612 0.0040477975 
    9800    1.6016717 -0.035976693    2.1237766    4.4888514 -0.00083120558 
   10000    1.6060235 -0.039497805    2.1207875     4.488865  0.003455585 
   10200    1.5650838 -0.038525184    2.1812879    4.4889656  0.003789535 
   10400    1.5624334 -0.041527897    2.1884183    4.4891201 0.0017612322 
   10600    1.5850149 -0.035262934     2.148235    4.4890534 -0.0019810785 
   10800    1.5764737 -0.036843821    2.1624689    4.4889025 -0.0013804363 
   11000    1.5943792 -0.036245867     2.135152    4.4890255 -0.0017922958 
   11200    1.6084844 -0.030526121    2.1085536    4.4892918 0.0080097357 
   11400    1.6312946 -0.035506774    2.0789617    4.4889139 0.00036670725 
   11600     1.582575 -0.044971831    2.1616032    4.4890552 0.0038571153 
   11800    1.6158369 -0.050886093    2.1176025    4.4890028 0.0096314693 
   12000    1.5838579 -0.044129943     2.158782    4.4889991 -8.3378336e-05 
   12200    1.5942255 -0.043639353    2.1428747    4.4891243 0.0028295087 
   12400    1.6185767 -0.043952109     2.106457    4.4888985 0.0047487107 
   12600    1.5788287 -0.039879272    2.1630184    4.4899469 -0.0038282852 
   12800    1.5999507 -0.034303948    2.1261969    4.4903645 -0.0018082387 
   13000    1.6129174  -0.03548997    2.1077767    4.4901966 -0.0035536566 
   13200    1.5649763 -0.035276134    2.1805634    4.4913291 0.0025107838 
   13400    1.6168495 -0.035403815    2.1019633    4.4903638 0.0022489277 
   13600    1.5960117 -0.032312358    2.1296948    4.4899491 0.0035863979 
   13800    1.5724963 -0.031758743    2.1643833    4.4899395 0.00059547982 
   14000    1.6163871 -0.030803362     2.096786     4.489094 0.0034795768 
   14200    1.6309879 -0.031312916    2.0759187    4.4896048 0.0072362923 
   14400    1.6011644 -0.031044545    2.1207414    4.4899878 0.0009702081 
   14600    1.6201625 -0.029378114    2.0906247    4.4900174  0.001763182 
   14800    1.6355324 -0.026795224     2.065371    4.4903876 0.0017988961 
   15000    1.5804131  -0.02413907    2.1454882     4.490532 0.0015038492 
   15200    1.6060823 -0.028176672    2.1107805    4.4902672 0.0034546716 
   15400    1.6230719 -0.031213023    2.0884594    4.4903786 -0.0033278349 
   15600    1.5988923 -0.023374626    2.1170308     4.490541 0.00064972912 
   15800    1.5807443 -0.024058122     2.145154    4.4907753  0.006918036 
   16000    1.5895918 -0.023496284    2.1313419    4.4907883 0.00013417582 
   16200    1.6718904 -0.023560755    2.0075928    4.4903477 0.0061499456 
   16400    1.6182586 -0.025514839    2.0902767    4.4906787 -0.0016274388 
   16600    1.6142731 -0.025506646    2.0964117    4.4908472 0.0014828977 
   16800     1.598906 -0.023427063     2.118106    4.4915844 0.0056537368 
   17000    1.5974832 -0.021952906    2.1188365    4.4916562 0.0026465021 
   17200    1.5867021 -0.020325214    2.1342097    4.4924952 -0.0016191274 
   17400    1.5608625 -0.020135728    2.1724105    4.4921496 0.00035248791 
   17600     1.568879 -0.024695157     2.165386    4.4925831 -0.0065345313 
   17800    1.5815738 -0.023890263    2.1456973    4.4927299 -0.0024145012 
   18000    1.6018753 -0.021420446    2.1138032    4.4937394 -0.00020912011 
   18200      1.59159 -0.019508161    2.1267422    4.4931722 -0.0025255864 
   18400    1.5885943 -0.018329021    2.1296037    4.4927219 0.00086468598 
   18600    1.5698197 -0.017499203     2.157287    4.4930903 0.0043603721 
   18800    1.5415771  -0.01380945    2.1957338    4.4928887 9.9246488e-05 
   19000    1.5852448  -0.01629347    2.1328669    4.4929995 -0.0050539886 
   19200    1.6011772 -0.016954116    2.1103652    4.4937213 0.0015292558 
   19400    1.5855692 -0.018218711    2.1347896    4.4934833 0.0018221648 
   19600    1.6039081 -0.017428293     2.106227    4.4932028 0.0037093896 
   19800    1.6214744 -0.017533098    2.0809023    4.4941067 0.0063465712 
   20000    1.5619278 -0.015442682    2.1682903    4.4943194 -0.001810097 
   20200     1.570284 -0.012955513     2.153266    4.4943091 -0.0038642879 
   20400    1.5739694 -0.013238947    2.1481747     4.494459 0.0027480406 
   20600     1.596463 -0.013057751    2.1140499    4.4942354 0.00027224718 
   20800    1.5781643 -0.011568513    2.1410389    4.4952821 0.0035324005 
   21000     1.587992 -0.011740928    2.1262536     4.495057 0.0028154416 
   21200    1.6286588 -0.012742695    2.0657964    4.4945613 0.0080725622 
   21400    1.5758286 -0.012850246    2.1456099      4.49507 -0.0016018913 
   21600    1.5999968 -0.0095029364    2.1059247    4.4949623 -0.0049692676 
   21800    1.6057683 -0.0093587046    2.0967662    4.4946002 0.00097906628 
   22000    1.5969077  -0.01151797    2.1129296    4.4953214 0.00064849341 
   22200    1.5549735 -0.012890709    2.1778941      4.49605 -0.0059097199 
   22400    1.5762234 -0.012493849    2.1450507    4.4954591 0.0019011927 
   22600    1.5889673 -0.014125583    2.1277123    4.4955931 0.0032718383 
   22800    1.6025459 -0.012474823    2.1064949    4.4963821 0.0042532113 
   23000    1.5606792 -0.013493648    2.1698354    4.4959417 0.0020906624 
   23200    1.5822847 -0.013503816    2.1374891    4.4959739 -0.00017088755 
   23400    1.5436044 -0.013902765     2.196335    4.4964356 -0.0042506126 
   23600    1.6115293 -0.015266021    2.0961502     4.496713 0.0084236719 
   23800    1.6157513 -0.013079714    2.0870804    4.4961589 -0.0017670474 
   24000    1.5993844 -0.010801274    2.1096636    4.4964849 0.0077110475 
   24200    1.5922949 -0.012672788    2.1227384    4.4970603 0.00062940618 
   24400    1.6014331 -0.011975847    2.1079332    4.4966513 0.0040915962 
   24600    1.5519224 -0.014496856    2.1849726    4.4969486 -0.0021309123 
   24800    1.5705039 -0.013289289    2.1560617    4.4971005 0.0063606816 
   25000      1.54967 -0.010069103    2.1839727    4.4969999 -0.0052711576 
   25200    1.5644436 -0.0099674741    2.1617173     4.496993 0.00099523872 
   25400    1.5851763 -0.011884991    2.1324503    4.4968887 -0.0021512609 
   25600      1.57842 -0.013584675    2.1442647     4.496875 -0.0022893187 
   25800    1.5637022 -0.016262511    2.1692433    4.4971126 0.0068874825 
   26000    1.5773047 -0.014103143    2.1466072    4.4970273 0.0074006711 
   26200    1.5697565 -0.013582282    2.1569861    4.4966115 -0.011169016 
   26400     1.619656 -0.010047816    2.0785936    4.4965574  0.009114639 
   26600    1.5945402 -0.013211746    2.1195638    4.4967128 -7.5328976e-05 
   26800    1.5812865 -0.014742323    2.1405882    4.4963382 -0.00030680897 
   27000     1.559126 -0.011340179    2.1706609    4.4965924 -0.0034209312 
   27200    1.6086974 -0.013820653    2.0989935    4.4967565 0.0021294442 
   27400    1.5959265 -0.011437046    2.1161509    4.4971527 -0.0032583809 
   27600    1.5692777  -0.01038356    2.1555521    4.4976585 -0.001089228 
   27800    1.5919743 -0.0057228517    2.1165591    4.4973504 0.0025708258 
   28000    1.5862584 -0.009297564     2.128904     4.497552 -0.004150787 
   28200    1.5928616  -0.00553471    2.1153766    4.4976862 -0.00086797888 
   28400    1.5780198 -0.0079490543     2.139842    4.4974881 0.0022739891 
   28600    1.5804877 -0.0099752466    2.1382483    4.4975678 0.0029815221 
   28800    1.5764803 -0.0068527431    2.1408872    4.4973217  0.010249007 
   29000    1.5574437 -0.0060271823    2.1687515     4.497474 -0.002016268 
   29200    1.5625505 -0.0057332986    2.1607406    4.4974126 -0.00076804935 
   29400    1.5778765 -0.0066949324    2.1386916     4.497377 -0.0049223739 
   29600     1.571083 -0.007533478    2.1497394    4.4974022 -0.00039225919 
   29800    1.5647537 -0.0061286983    2.1574843    4.4970637 0.0013802053 
   30000    1.5805418 -0.0081659506    2.1351843    4.4963942 0.0025531873 
   30200    1.5515001 -0.0074959205    2.1778534    4.4961972 -0.0010318205 
   30400    1.5768729 -0.0066822859    2.1389721    4.4961656 0.00044883988 
   30600    1.5969738 -0.0040641675    2.1061537    4.4960985 0.0046317363 
   30800    1.6091273 -0.0044020817     2.088378    4.4962041 0.0039485221 
   31000    1.5954092 -0.0069238536    2.1115914    4.4963309 3.8504412e-05 
   31200    1.6427251 -0.0080153324    2.0420013    4.4965802 0.0035850455 
   31400    1.5848003 -0.0090743448    2.1298192    4.4965045 -0.00032845511 
   31600    1.6110742 -0.0074500201    2.0877956    4.4954923 0.0055661071 
   31800    1.5749261 -0.0088495147      2.14309     4.495198 -0.003680647 
   32000    1.5566484 -0.0068302754    2.1686905    4.4954176 0.0005244548 
   32200    1.6273335 -0.0091489682    2.0644703    4.4948422 -0.00079469362 
   32400    1.5919795 -0.0056157374    2.1136703    4.4945766  0.004931201 
   32600    1.5430923 -0.0073649193    2.1895205    4.4953913 0.0011333288 
   32800    1.5958309 -0.0064906214    2.1091092    4.4949141 0.0041920925 
   33000    1.5866581 -0.0060047603    2.1223095    4.4948495 0.0020946868 
   33200    1.5403769 -0.0021690669    2.1884925    4.4954884 -0.0040684531 
   33400    1.6079603 -0.0042693298     2.088201    4.4944104 -0.0018563911 
   33600    1.6069344 -0.0061740554    2.0917995    4.4945662  0.007806739 
   33800    1.5791778 -0.0063334794     2.134699    4.4956966 0.0020002137 
   34000    1.6038064 -0.0077116973    2.0983202    4.4948601 0.0046126266 
   34200    1.5749443 -0.0078632584    2.1418231    4.4949446 -0.0027744061 
   34400    1.5750377 -0.0090180642    2.1431792    4.4952858 0.0036737403 
   34600    1.5911942 -0.0078942448    2.1170824     4.494533 0.0032434498 
   34800    1.5885207 -0.0079262944    2.1213646    4.4947753 0.0053829841 
   35000    1.6067531 -0.006643272    2.0932835    4.4953092 -0.0030456072 
   35200    1.6216227 -0.007060892    2.0713073    4.4952063 0.0012057168 
   35400    1.5784702 -0.0099853568    2.1387323    4.4950172 -0.0042472254 
   35600    1.5962789 -0.008065262    2.1100371    4.4949391  0.009326954 
   35800    1.5541319 -0.0080931842    2.1737821     4.495474 -0.0075309802 
   36000    1.5924857 -0.0085793812    2.1166918    4.4953933 -0.0066046007 
   36200    1.6073741 -0.0067297138    2.0923388    4.4952089 0.0071498849 
   36400    1.5791366 -0.0068885119     2.134802    4.4951828 0.0044543237 
   36600    1.5923164 -0.0085228131    2.1169849    4.4954892 -0.0025029202 
   36800    1.5855134 -0.0097771518    2.1285891    4.4956407 -0.00028923755 
   37000    1.5839551 -0.0092731072    2.1302329    4.4954525 0.0018770568 
   37200    1.6110752 -0.0088103971    2.0892152     4.495553 0.00016537398 
   37400    1.5533105 -0.0065721981    2.1741477    4.4961291 -0.0079647564 
   37600    1.5774008 -0.006061008    2.1378655    4.4964717 0.0015356931 
   37800    1.5685597 -0.004916889    2.1500694    4.4965661 0.0012001735 
   38000    1.5675329 -0.0083980113    2.1553076    4.4967839 0.0069361089 
   38200    1.5694338 -0.0058994114    2.1506279    4.4974524 0.0036966282 
   38400     1.574295 -0.009821408     2.148237    4.4984269 -0.002771112 
   38600    1.6058777 -0.0089824395     2.099936    4.4983102 0.00050261983 
   38800    1.5585791 -0.0089778631     2.170436      4.49791 -0.00096252376 
   39000    1.6179441 -0.0086268389    2.0807536    4.4975721 0.0051972862 
   39200    1.5767776 -0.008915797    2.1429751    4.4977924 0.0041794045 
   39400    1.6049578  -0.00509815    2.0965753    4.4974548 -0.0003234054 
   39600    1.5792857 -0.0059421113     2.136309    4.4978598 -0.002290297 
   39800    1.5837652 -0.0039122101    2.1279187    4.4982145  0.007641564 
   40000    1.5979994 -0.0054949703    2.1078249    4.4978763 0.0032165389 
   40200    1.6217314 -0.007708294    2.0742477    4.4976622  0.006315555 
   40400    1.5953102 -0.0073769785    2.1141893    4.4983274 0.0085674933 
   40600    1.5816736 -0.0084904756    2.1359349     4.498517 -0.0018263607 
   40800    1.5614443 -0.0053926142    2.1631909    4.4985452 0.0019231707 
   41000     1.610146 -0.0063272547    2.0909043    4.4983322 0.0023628307 
   41200    1.6289303 -0.0068800708    2.0627781    4.4978126 0.0039019901 
   41400    1.6203958 -0.0081833952    2.0778698     4.498807 0.0034514547 
   41600    1.5907558 -0.0091766814    2.1235578    4.4990688 0.00013616876 
   41800    1.5860246 -0.009622875    2.1316032    4.4995754 0.0050756642 
   42000    1.5758072 -0.0054548771    2.1430414    4.4998648  0.004251804 
   42200    1.5682603 -0.0054891432    2.1539528    4.4994284 0.0020195657 
   42400    1.6086344 -0.0056820723    2.0936158    4.4994229 -0.0026446513 
   42600    1.6385779 -0.0073635213      2.05016    4.4991737 0.0077414393 
   42800    1.5996252 -0.0072441483    2.1093657    4.5001052 0.0050898657 
   43000    1.5973295 -0.010663784    2.1158153    4.4996936 0.0020120167 
   43200    1.5717057 -0.0094455607    2.1533057      4.49999  0.003465283 
   43400    1.6022394 -0.0086738358     2.106804    4.5000327 0.0024317312 
   43600     1.576801 -0.0093723981    2.1459135    4.5003091 -0.0032303243 
   43800    1.5857078 -0.0097561378    2.1329195    4.5002835 0.0086728935 
   44000     1.576143 -0.0086661769    2.1459891    4.5001046 0.0013546781 
   44200    1.5699242 -0.0064341412    2.1534694    4.5004944 0.0006246546 
   44400    1.5943737 -0.0055750849    2.1158358    4.5003718  0.006776085 
   44600    1.5704416 -0.0079379533    2.1543638    4.5006605 -0.00060061843 
   44800    1.5958562 -0.0077685701    2.1159236    4.5004886 0.0038935221 
   45000    1.5943258 -0.0076125303    2.1181596    4.5005863  -0.00355695 
   45200    1.5679526 -0.0089979034    2.1592884     4.500794 -0.0014362279 
   45400    1.5774395 -0.010211851    2.1462119    4.5007253 -0.0032970214 
   45600    1.5947567 -0.0077070628    2.1182508     4.501229 0.0069823536 
   45800    1.5923137 -0.0063199069    2.1199855    4.5006885 0.00014295193 
   46000    1.5914787 -0.0095752511    2.1247176    4.5009136 0.0059993414 
   46200    1.5811335 -0.009683718    2.1402593    4.5008384 0.00056751648 
   46400    1.6113507 -0.0096005737    2.0946925     4.500653 0.0055394151 
   46600      1.56849 -0.0093772416    2.1591143    4.5010461 0.0060161893 
   46800    1.5654161 -0.0088405431    2.1628282    4.5006888 -0.001415116 
   47000    1.5978534 -0.011492782    2.1171836    4.5010183 0.0014256227 
   47200    1.5923005 -0.010314581    2.1237086    4.5003972 0.0050203986 
   47400    1.5758887 -0.0078180605    2.1464299    4.5010123 0.0038385576 
   47600    1.5757714 -0.0083816234    2.1468393    4.5006822 0.0062651561 
   47800    1.5671963 -0.0087236359    2.1599274    4.5005735 0.0013973132 
   48000    1.6046571 -0.0082754339    2.1030704    4.5003219 0.0010289996 
   48200    1.5504297 -0.0075986623    2.1838544    4.5004908 -0.0068035813 
   48400     1.581809 -0.011399878    2.1410044    4.5008799 0.0061504065 
   48600    1.5829674  -0.01396062    2.1417796     4.500831 0.0091261275 
   48800    1.5979227 -0.014465255    2.1207412    4.5017073 0.0076171898 
   49000     1.601931 -0.011584128    2.1121022    4.5019582 0.0049604586 
   49200    1.6033852 -0.0095657053    2.1080472    4.5021016  0.005268191 
   49400    1.5628297 -0.011701555    2.1711065    4.5022288 0.0047098677 
   49600    1.6124987 -0.010464579    2.0953231    4.5021406 0.0022580294 
   49800    1.5893405 -0.0096874984     2.129287    4.5021654 0.0026301625 
   50000    1.6318338  -0.00908514    2.0652146    4.5023966 0.0081612948 
   50200    1.6080177 -0.0099483437    2.1017542    4.5023706 0.0046137175 
   50400    1.6347179 -0.0095116421    2.0611874    4.5022666 0.0090478296 
   50600    1.6149877 -0.010413189    2.0919026    4.5025028 0.00013788583 
   50800    1.5965213 -0.010843039    2.1200477    4.5025352 0.0066016948 
   51000    1.5767762 -0.011240239    2.1503101    4.5028008 -0.0011879504 
   51200    1.5874592 -0.011473925     2.134435    4.5027067 0.0027750766 
   51400    1.5988787 -0.010521068     2.117239    4.5035825 0.0041818909 
   51600    1.5633205 -0.0097380592    2.1701402    4.5039617 -0.0013860562 
   51800    1.6166424 -0.014242406    2.0944863    4.5037379 0.0031960002 
   52000     1.595682 -0.010533965    2.1227102    4.5042486 0.0014746483 
   52200     1.576083 -0.0096508358    2.1512705    4.5043115 -0.0014097044 
   52400    1.6162551 -0.010189597    2.0916977    4.5044214 -0.00050668964 
   52600    1.6346675 -0.0093486764    2.0636683    4.5048348  0.010385301 
   52800    1.5779423 -0.0091086898    2.1494699    4.5058402 0.0067422551 
   53000    1.5955802 -0.0073633856    2.1206947     4.505251 -0.0020638354 
   53200    1.5697077 -0.0096579557    2.1625119    4.5059885 0.0026179758 
   53400    1.5722964 -0.0092629877    2.1582828    4.5060351 0.0026725428 
   53600     1.602452 -0.0073781588     2.110922    4.5057651 0.0037667157 
   53800    1.5770787 -0.0063638123    2.1485316    4.5063522 0.0024102179 
   54000    1.6176701 -0.0055377625     2.086584    4.5060808 0.0038662872 
   54200    1.6043054 -0.007928046    2.1089506    4.5060223 0.0022968511 
   54400    1.5904919 -0.0092076228     2.131259    4.5063433 0.0075949568 
   54600    1.5760058 -0.0069907421    2.1506465    4.5062317   0.00438671 
   54800     1.622562 -0.0062344016    2.0794987    4.5056322 0.0034806386 
   55000    1.5885238 -0.0054914313    2.1303131    4.5061633 -0.00080596266 
   55200    1.5718002 -0.0063804834    2.1570492    4.5069401  0.004545616 
   55400    1.5631388 -0.0087494283    2.1725766    4.5071142 0.0005017423 
   55600    1.5630697 -0.0083409654    2.1724969    4.5073395  0.004233113 
   55800    1.5946611 -0.0051194103     2.121892    4.5073145 0.0025102984 
   56000     1.598242 -0.010137958    2.1216733    4.5074454 -0.011352742 
   56200    1.5871642 -0.0058304932    2.1342797    4.5077526 -0.0019025457 
   56400    1.6003844 -0.0047335384    2.1132878     4.507676 0.0038971357 
   56600    1.5888409 -0.0087943694    2.1347451    4.5077676 0.0044716723 
   56800    1.6086184 -0.0093300085     2.105398    4.5075332 0.0055193899 
   57000    1.5980505 -0.0082195713    2.1206383    4.5080416 0.0046579784 
   57200    1.5638972 -0.0087975353    2.1728247    4.5084513 -0.0041099661 
   57400    1.5849047 -0.010736675    2.1433723    4.5085519 0.0025696248 
   57600     1.582013 -0.010611403    2.1476481    4.5086179 0.0072888904 
   57800    1.5752437 -0.009077667    2.1560294    4.5083853 0.00093132556 
   58000     1.599503 -0.0073423755    2.1182259    4.5086839  0.004527796 
   58200    1.6015184 -0.0069216503    2.1145999    4.5084999 -0.0041852595 
   58400    1.5806548 -0.0068959666    2.1461024    4.5087518 -0.00038027383 
   58600    1.5756293 -0.0077850741    2.1551367    4.5093632 0.0060476951 
   58800    1.5865766 -0.010189011     2.140714    4.5089476 -0.0043549748 
   59000    1.6461859 -0.0075306084    2.0480631    4.5083148  0.010423914 
   59200    1.5970637 -0.0085882405    2.1230191    4.5085745 -0.0015264447 
   59400    1.6041733 -0.011037986    2.1151628    4.5089264 0.0045527086 
   59600    1.6252993 -0.0077817559    2.0803957    4.5090853 0.0016044049 
   59800    1.5890528 -0.0078409591    2.1349925    4.5092861 0.0042678767 
   60000    1.5832785 -0.006091898    2.1415216    4.5089081 -0.0033369813 
   60200      1.56608 -0.011979683    2.1736538    4.5093705 0.00024028426 
   60400    1.5813415 -0.011072875    2.1501534    4.5096552 0.0047159505 
   60600    1.5525942 -0.010209608     2.193031    4.5103012 0.0019381391 
   60800    1.6081721 -0.010248866    2.1093691    4.5099165 -0.0030423046 
   61000    1.5906578 -0.0070663818    2.1328424    4.5103166 -0.0024274444 
   61200    1.5869049 -0.0074199259    2.1383728    4.5098677 0.00065092226 
   61400    1.6191403  -0.00723443    2.0900438    4.5100479 0.0043587845 
   61600    1.5698877 -0.0073168999    2.1643644    4.5104518 0.0014290772 
   61800    1.5877583 -0.0092136977    2.1387289    4.5097093 -0.0027772987 
   62000    1.5771281 -0.0098922457    2.1565607    4.5109269 0.0088246313 
   62200    1.5863068 -0.012874798    2.1454912    4.5106345 0.0003968534 
   62400    1.5761955 -0.010447016    2.1581192    4.5105326 -0.0027109426 
   62600    1.5762053 -0.0079100143    2.1560388    4.5110038 -0.0029407669 
   62800    1.5756107 -0.0079553718    2.1568809    4.5109092 0.0059197531 
   63000    1.5900404 -0.0091521303    2.1369075    4.5113705 -0.0018247307 
   63200    1.5832828 -0.0047249631    2.1432039    4.5119638 -0.0010899603 
   63400    1.5811277 -0.0063538478    2.1481376    4.5120379 -0.0025868615 
   63600    1.5999294 -0.0091602235    2.1223874    4.5116668 -0.0031002857 
   63800    1.5740523 -0.0091056329    2.1614039    4.5119458 0.00078549238 
   64000    1.5747249 -0.010499703    2.1618658    4.5120218 -0.002262903 
   64200    1.5738324 -0.0084314779    2.1612911    4.5121774 -0.0049019652 
   64400    1.6062215 -0.0082520821     2.112412     4.512032 0.0060796341 
   64600    1.5672138 -0.0085004109    2.1712714     4.512167 0.0051598208 
   64800    1.5878817 -0.0089204612    2.1410803    4.5125388 0.00057193825 
   65000     1.631854 -0.0037438235    2.0699788    4.5125325 0.0051075804 
   65200    1.5562936 -0.0053707607    2.1855908    4.5132456 0.0041995132 
   65400    1.6137736 -0.011713211     2.105711    4.5131912 0.0069364224 
   65600    1.5656754 -0.0096637345    2.1759481    4.5133741 -0.00024672201 
   65800    1.5800796 -0.0074128356    2.1522329    4.5135029 -0.004748856 
   66000    1.5778317  -0.00924212    2.1575301    4.5136012 -0.00039839312 
   66200    1.5984504 -0.0093857471    2.1265737    4.5134104 0.0083574337 
   66400    1.5575493 -0.0078706255     2.186996    4.5140333 0.0014098668 
   66600    1.5858758 -0.0088083876    2.1451391    4.5137027 -0.0037823039 
   66800    1.5965934 -0.010127789    2.1305233    4.5138342 -0.005048054 
   67000    1.5602101 -0.006407363    2.1815062    4.5139956  0.001339969 
   67200    1.6495094 -0.007115446    2.0481935    4.5138425 0.0024380368 
   67400    1.5422571 -0.0078754324    2.2106905    4.5147987 -1.597852e-05 
   67600    1.5775063 -0.0065733924    2.1570882    4.5153402 0.0044727273 
   67800    1.6375958 -0.011246228    2.0705638    4.5142226 0.0060341018 
   68000    1.6005899 -0.0068214466    2.1226625    4.5152707 0.0067232975 
   68200    1.5886607 -0.011792929     2.144838    4.5145919 -0.0013418747 
   68400    1.5824284 -0.014420116    2.1571169    4.5149008 0.0066866161 
   68600    1.5996409 -0.014857534    2.1314201    4.5145698 -0.0012147525 
   68800    1.5828378 -0.0098846484    2.1519977    4.5149308 -7.7636717e-05 
   69000    1.6369364 -0.0079872716    2.0689695    4.5148988 0.0055435008 
   69200    1.5831894 -0.010989486    2.1527508    4.5151062 -0.0056373399 
   69400    1.5806446 -0.010725808    2.1569341    4.5157383 0.0007341613 
   69600    1.5951214 -0.008347286    2.1323684     4.515253 0.0084064822 
   69800    1.5808805 -0.006351871    2.1517484      4.51528 0.0018746965 
   70000    1.5731795 -0.008467577    2.1656173    4.5154887 -0.0054337855 
   70200    1.6419745 -0.0061947349    2.0600784    4.5153527  0.011753377 
   70400    1.6160772 -0.0072510493    2.1004836    4.5158791 0.00028155987 
   70600    1.6195679 -0.0070660249    2.0947091    4.5155227  0.001183536 
   70800    1.6070732 -0.0072344118    2.1138905    4.5158048 0.0014856775 
   71000    1.5808488 -0.0046268626    2.1507388     4.515948 -0.0021240621 
   71200     1.584519 -0.0045605872    2.1455724    4.5163498 -0.0040009735 
   71400    1.5961432 -0.0098961198    2.1340627    4.5169303 0.0068332468 
   71600     1.551186 -0.010791543    2.2020396    4.5166169 0.0035545914 
   71800    1.5734793 -0.012119479    2.1702734    4.5169425 0.0078799071 
   72000    1.5636795 -0.010096123    2.1831616    4.5171632 0.0024531757 
   72200     1.608188 -0.0072652307    2.1133229    4.5168776 0.0042757481 
   72400    1.6160608 -0.0066519033    2.1012628     4.517233 0.0023537056 
   72600    1.6149598 -0.0055965011    2.1013918    4.5167669 0.0041416176 
   72800    1.5960586 -0.0083564379    2.1327867    4.5170672 0.0066563633 
   73000    1.5417537 -0.0096099206    2.2161343    4.5177533 -0.0063143215 
   73200     1.585474 -0.0025884699    2.1439392    4.5181204 0.0070071209 
   73400     1.596176 -0.007163644    2.1317826    4.5174318  0.013373806 
   73600    1.5944799 -0.0084465006    2.1363144    4.5181383 -0.0025318636 
   73800      1.61605 -0.0089853488     2.104451    4.5180714 0.0023180378 
   74000    1.5605399 -0.0072212738    2.1865488    4.5187186 -0.0003959339 
   74200    1.6060441 -0.0092078466    2.1199358    4.5183341 0.0034345445 
   74400    1.5759708 -0.0063723415    2.1624458    4.5185969 -0.0033519174 
   74600    1.5775199 -0.0062283277    2.1597079    4.5183254 -0.0028655584 
   74800    1.6321071 -0.0063140064    2.0776813    4.5180442 0.0046964842 
   75000    1.6207041 -0.0095309605    2.0982346    4.5182864 0.0044588042 
   75200    1.5734802 -0.0094952324    2.1692301    4.5185248 0.0013474425 
   75400    1.5645267 -0.0088522751    2.1823548    4.5188703 0.0018035555 
   75600    1.6104862 -0.0073267087    2.1116959    4.5186345 0.0016098834 
   75800    1.6009084 -0.0071377464    2.1262854    4.5190548 0.0012563231 
   76000    1.6103378 -0.006764815    2.1117834    4.5190614 0.0009775918 
   76200    1.5817568 -0.0070615918    2.1554398    4.5195755 0.0026697229 
   76400    1.5957551 -0.0060092719    2.1330244    4.5191971 -0.0047048591 
   76600    1.5902774 -0.0076109108    2.1435382    4.5198977 0.0011718868 
   76800    1.5498466 -0.0071880917    2.2036572    4.5198301 -0.0034091231 
   77000    1.5900534 -0.0057878543    2.1420788    4.5199255 -0.0010212907 
   77200    1.5426482 -0.0051003607    2.2129736    4.5204432 -0.010474727 
   77400    1.5962903 -0.0056336139    2.1331103    4.5204609  0.012363108 
   77600    1.5763337 -0.0082706418    2.1652279    4.5200248 0.00024693359 
   77800    1.5631055 -0.0076474073     2.184802    4.5203919 0.0014817585 
   78000    1.5973774 -0.0076654364    2.1332559    4.5202044 0.0062893086 
   78200    1.5368223 -0.0067076666    2.2238768    4.5210054 0.0012891429 
   78400    1.5750105 -0.0053762509     2.165427    4.5211348 0.0023525613 
   78600    1.5763507 -0.0068660556     2.164474     4.520701 -0.0023884048 
   78800    1.5666828 -0.0080266836    2.1801975    4.5207707 -0.0020311255 
   79000    1.6068164 -0.0070792801    2.1197227    4.5214073 -0.0012454652 
   79200      1.61701 -0.0068771094     2.103654    4.5208219 0.0059542476 
   79400    1.6216357 -0.006799885     2.096613    4.5207925 0.0062860997 
   79600     1.603175 -0.0070778912    2.1250481    4.5212753 -0.00019113114 
   79800    1.5906349 -0.0075032425    2.1440038    4.5210068 -0.00058956245 
   80000    1.5952508 -0.0080358858    2.1375176    4.5209078 0.0049540077 
   80200    1.5737311 -0.006706121    2.1686478    4.5211076 -0.0017139758 
   80400    1.6004509 -0.0062244408     2.128356    4.5213529 0.0019129392 
   80600    1.6199837 -0.0035606394    2.0963777    4.5213199 8.2124953e-05 
   80800      1.60379 -0.0068276939    2.1233208    4.5207202 -0.00018712519 
   81000    1.6081706 -0.006109817    2.1165421    4.5212263  0.001994617 
   81200    1.5912141 -0.0094846879    2.1453358    4.5212258 0.0071779168 
   81400    1.5910592 -0.0079302551    2.1444572    4.5216693 -0.00071375228 
   81600     1.587571 -0.0056795874    2.1472501    4.5214838 0.0011880469 
   81800    1.5691918 -0.0048996716    2.1747281    4.5221896  0.005965415 
   82000    1.5666878 -0.004099025    2.1774796    4.5219881 0.0038671111 
   82200    1.6047756 -0.002822338    2.1199153    4.5227975 0.0039592243 
   82400    1.5982406 -0.0032196679    2.1298523    4.5225405  0.003855294 
   82600    1.5964951 -0.0041160671    2.1332955    4.5224707 -0.00073727223 
   82800     1.644393 -0.0018584037    2.0594279    4.5226641  0.010694715 
   83000    1.5396388 -0.0068698566    2.2222203     4.523409 -0.0010470085 
   83200    1.6267233 -0.0058351923    2.0907809    4.5235518 0.0079106451 
   83400    1.5912089 -0.0066731374    2.1446719    4.5233656 -0.0038392634 
   83600     1.628676 -0.004343553    2.0863061    4.5234959 0.0079280981 
   83800    1.5878351 -0.0081603513     2.151491    4.5236398 -0.0015037622 
   84000    1.6157023 -0.0062663588    2.1083223    4.5241405 0.00089703901 
   84200    1.6303556 -0.0083266618    2.0883986    4.5241232  0.010630843 
   84400    1.5937375 -0.0080688162    2.1433974     4.524486 -0.00075821171 
   84600    1.6384518 -0.0084266785    2.0770473    4.5248088 0.0012978814 
   84800    1.5804564 -0.0083953212    2.1649926    4.5258451 0.0036476892 
   85000    1.5808705 -0.0099016897    2.1655317    4.5254986 -0.00063596021 
   85200    1.6085963 -0.011484291    2.1262145    4.5261623 0.00021057187 
   85400    1.6266268 -0.0091629497    2.0965337    4.5258322 0.0051692707 
   85600    1.5756911 -0.0054553784    2.1697436    4.5263924 0.00043192051 
   85800    1.5481996 -0.0057964049    2.2115559    4.5266515 -0.0046054386 
   86000    1.6551627 -0.0072288952    2.0520158    4.5260263 0.0062064194 
   86200    1.5999771 -0.0084547041    2.1365858    4.5266423 -0.0026532371 
   86400    1.5626847 -0.0063182515    2.1906628     4.526951 0.0021656526 
   86600    1.5718839 -0.0081729568     2.178987    4.5272108 -0.0013791968 
   86800    1.5830597 -0.0080843968    2.1620589    4.5271249 0.0015330308 
   87000    1.5613267 -0.0074327442    2.1939981     4.527136 0.0035426064 
   87200    1.5869096 -0.0091994988    2.1578294    4.5275516 0.0017116279 
   87400    1.5500491 -0.012724886    2.2167485    4.5276881 -0.0024857335 
   87600    1.5890668 -0.0093638979    2.1548894    4.5276811 0.0037796946 
   87800    1.5901479 -0.0093577153    2.1535388    4.5279574 -0.0022899472 
   88000    1.5643044 -0.0077940023    2.1913297    4.5285702 -0.0043605478 
   88200    1.5854553 -0.0091600767     2.161095    4.5286765  0.005007116 
   88400    1.5799354 -0.010667815    2.1707881    4.5285871 0.00067951218 
   88600    1.6135789 -0.0097948265    2.1197649    4.5288716 -0.00084276922 
   88800    1.5781685 -0.0075546298    2.1711933    4.5294568 -0.0004852765 
   89000    1.5603423 -0.0097961957    2.2004967    4.5297955 0.0022119523 
   89200    1.6005335 -0.0078774489    2.1387005    4.5301683  0.008922974 
   89400    1.5602876 -0.010279488    2.2009319    4.5296654 0.00013470474 
   89600    1.6043917 -0.0090543599    2.1337156    4.5297903 0.0033211868 
   89800    1.5880213 -0.0097438469    2.1592575    4.5301019 0.0015503174 
   90000    1.6000406 -0.0077911954    2.1391072    4.5299223 -0.00021936523 
   90200    1.6184341 -0.0074622805    2.1115594    4.5302769 0.0039612208 
   90400    1.6238759 -0.0086466149    2.1049772    4.5306682 -0.00013733849 
   90600    1.6309601 -0.0071509351    2.0932845     4.531091 0.0088220534 
   90800    1.5687573 -0.0061110067    2.1854503    4.5310491 0.0017310016 
   91000    1.5972726 -0.0073262658    2.1442304     4.531361 0.0061582194 
   91200    1.5485179 -0.011287245    2.2217554    4.5318372 0.0025735236 
   91400    1.6042716 -0.0090876558    2.1360714    4.5319327 -0.0073538919 
   91600    1.6172785 -0.0091037696    2.1166393    4.5319831 0.0083194423 
   91800    1.6151344 -0.0091481756    2.1200399     4.532125 0.0063460431 
   92000    1.6073138  -0.01052359       2.1336    4.5325859 -0.0035837721 
   92200    1.5925499 -0.013400673     2.158819    4.5327954 -0.0062833846 
   92400    1.6063342 -0.013705395    2.1382299    4.5325656  0.002429822 
   92600    1.5787302 -0.010424177    2.1763546    4.5325905 -7.9354363e-05 
   92800    1.5718817 -0.009258846    2.1852905    4.5324252 0.0059275021 
   93000    1.5944502 -0.005795745    2.1481507    4.5325808 0.0062805047 
   93200    1.6039915 -0.0066454214    2.1347324     4.532616 -0.0015339709 
   93400    1.6030016 -0.010467989    2.1407445    4.5333216 -0.00023337005 
   93600    1.6247453 -0.005162356    2.1030756    4.5335541 0.0097116839 
   93800    1.5855104 -0.0084329059    2.1651201    4.5335115 0.00022488778 
   94000    1.6027325 -0.0076066629    2.1386349    4.5336699  -0.00214335 
   94200    1.5759677 -0.0065872956    2.1781264     4.534058 -0.00040191137 
   94400    1.5701729 -0.0043045841    2.1849192    4.5344466 0.0041656903 
   94600    1.6065002 -0.0083568632    2.1335728    4.5335058 0.0038990805 
   94800    1.5762368 -0.0086311391    2.1803723    4.5346635 0.0042967173 
   95000    1.5891489 -0.0067586192    2.1585305    4.5340506 -0.00084676804 
   95200    1.5937247 -0.0067204329    2.1522045    4.5346223 -0.010442039 
   95400    1.5782524 -0.009157991    2.1783778    4.5351636 -0.011068691 
   95600    1.5896789 -0.010090932    2.1617164    4.5346986 0.0060562425 
   95800    1.6162001 -0.0094662088    2.1216471    4.5350118 -0.0026753841 
   96000    1.6168663 -0.0076609256    2.1189621    4.5351307 0.0098658489 
   96200     1.596919 -0.0078565755     2.150135    4.5362052 0.0054586978 
   96400    1.5766913 -0.0061229191    2.1788304    4.5363111  0.005045082 
   96600    1.6179316 -0.0073576568    2.1177489    4.5358179 0.0014242137 
   96800    1.5753646 -0.0073212225    2.1812187    4.5355122 -0.0084344834 
   97000    1.5857511 -0.0053709389     2.164401    4.5362152 0.00043925493 
   97200    1.5546583 -0.0028570058    2.2089796    4.5366967 0.0022988569 
   97400    1.5789711 -0.005227469    2.1748875    4.5366813  0.002610096 
   97600    1.6221087 -0.0043395484    2.1094955    4.5368443 0.0024335836 
   97800    1.6081527 -0.0037401967    2.1302961     4.537323 0.0030382144 
   98000    1.6063947 -0.006066208    2.1350105    4.5370759 0.0039935868 
   98200     1.573696 -0.0052877785    2.1840849    4.5379105 -0.00093924835 
   98400    1.5592442 -0.0075486683    2.2081239     4.538024 0.0094401727 
   98600    1.5784452 -0.0067517685    2.1787666    4.5382476 -0.0037959793 
   98800    1.6064408 -0.0043657806    2.1339135    4.5377484 -0.0028366529 
   99000    1.5542573 -0.0070125034    2.2154217    4.5383823 -0.0020930344 
   99200     1.616021 -0.0059036068     2.121838    4.5384968  0.006356412 
   99400    1.6529664 -0.0070192623     2.067436    4.5383635 0.0026377975 
   99600    1.6026531 -0.004592227    2.1407099    4.5386405 0.0033684383 
   99800    1.6023907 -0.0051309761    2.1416739    4.5386722 0.00070758638 
  100000    1.6000639 -0.0059787288    2.1457397    4.5384023 -0.00097655487 
  100200    1.6394244 -0.0050598787    2.0863808    4.5389671 0.0042308708 
  100400    1.6083498 -0.0067509935    2.1346385    4.5389501 0.0052914307 
  100600    1.5541564 -0.0070714871    2.2167352    4.5394854 0.0047663221 
  100800    1.5988174 -0.010233104    2.1529062    4.5394457 -0.0024397606 
  101000    1.5931732 -0.0085388043    2.1596098    4.5393824 4.2970389e-05 
  101200    1.6311612 -0.0091700218    2.1038134    4.5399023 0.0067485118 
  101400    1.5667624 -0.007615148    2.1988772    4.5399813 0.0072794138 
  101600    1.5967012 -0.0079858843    2.1544579    4.5400723 0.0042195707 
  101800    1.5874168 -0.0059145158    2.1666287    4.5403964 0.0050028664 
  102000    1.5565695 -0.0072913096    2.2145029    4.5406507 -0.0063884093 
  102200    1.5888409 -0.0087311845    2.1677102     4.540796 -0.0031807342 
  102400    1.6107773 -0.0078287726    2.1340358    4.5409085   0.00581339 
  102600     1.564462 -0.0081723131    2.2045791    4.5416776 0.0041976088 
  102800    1.5573259 -0.0064165661    2.2135375     4.541694 -0.0049679202 
  103000    1.5971319 -0.0059432093    2.1532372    4.5415398 0.0067466203 
  103200    1.6081054 -0.0087652437     2.139758     4.541689 0.0032691619 
  103400    1.6082707 -0.0079133684    2.1389712    4.5420017 0.00093281629 
  103600    1.5947442 -0.007699469    2.1594343    4.5424013 0.0031056645 
  103800     1.615211 -0.0058778236    2.1270252    4.5424954 0.0084550362 
  104000    1.6080329 -0.0056416324    2.1379142    4.5428601 0.0029028979 
  104200    1.5704218 -0.0049004543    2.1936826    4.5429872 -0.005215772 
  104400    1.6116387 -0.0069688351      2.13395     4.542974 0.0080426284 
  104600     1.552583 -0.0073547707     2.223069    4.5431773 -0.0031749332 
  104800    1.5870385 -0.0088772117    2.1727612     4.542999 0.0033318864 
  105000    1.5921757 -0.010458937    2.1670719     4.543429 -0.0013600257 
  105200    1.6026535 -0.0075892656    2.1487682    4.5437023 0.0094449423 
  105400    1.5858909 -0.0057723125    2.1722628    4.5438851 0.0013044362 
  105600    1.5900404 -0.006914581    2.1676979    4.5443984 0.0010146292 
  105800    1.6088864 -0.006050106    2.1385304    4.5443473 0.00020456888 
  106000    1.6031423 -0.0081828231    2.1495088    4.5445821 0.0084201022 
  106200     1.590829 -0.0081366931    2.1677705     4.544431 -0.0007413173 
  106400    1.5909616 -0.0075228604    2.1674661    4.5449394 0.0008293919 
  106600    1.5996896 -0.0071468537    2.1536525    4.5445859 0.0025369161 
  106800    1.6074984 -0.0068974036    2.1418273    4.5447161 9.0550283e-05 
  107000    1.6061097 -0.0044173895     2.142246     4.545533 0.0079369446 
  107200    1.5981684 -0.0050270322    2.1548494    4.5456221 0.0036586067 
  107400    1.6354617 -0.006901303    2.1003404    4.5451449 -0.004785007 
  107600    1.5910121 -0.0071529025     2.167895    4.5458139 -0.0042746035 
  107800    1.5704099 -0.0066862875    2.1985149    4.5460157 -0.00044862751 
  108000      1.59817 -0.0075523966    2.1579457    4.5461954 0.0051208757 
  108200    1.6019193 -0.0076419254     2.152573    4.5463537 -0.0012411849 
  108400    1.6293991 -0.0068456571     2.110567    4.5463387 0.0041752111 
  108600    1.5982582 -0.0043194482    2.1553533    4.5469682 -0.00069282722 
  108800    1.5964039 -0.0044240165    2.1585896    4.5473202  0.011274377 
  109000    1.6018809 -0.004456076    2.1504329    4.5473419 -0.0074265276 
  109200    1.6042231 -0.006853558    2.1495681    4.5475907 -0.0018630843 
  109400    1.6008061 -0.0053707246    2.1535475    4.5479306 0.0036893471 
  109600    1.6275519 -0.0047530062    2.1126129    4.5477081 0.0051146443 
  109800    1.6533979 -0.005411094    2.0747013     4.547884 0.0091139608 
  110000    1.5778774 -0.003465443    2.1868476    4.5487638 -0.00032924695 
  110200      1.64023 -0.0056748031    2.0951753    4.5483543 0.00059504597 
  110400    1.6229936 -0.0080018478    2.1234084    4.5484214 0.0024255431 
  110600    1.6325124 -0.0096708367    2.1111108    4.5487244 0.0058115169 
  110800    1.6075082 -0.0092462552    2.1483406    4.5488952 0.0018072685 
  111000    1.6076075 -0.0080180977    2.1467266    4.5486583 0.0045822617 
  111200    1.5862482 -0.0078131662    2.1789301    4.5490472 -0.00090753463 
  111400    1.6257088 -0.0086371063    2.1202076    4.5486557 0.00064834808 
  111600    1.5922111 -0.0087325288    2.1709885    4.5491252 0.0064843473 
  111800    1.5951153 -0.0072542049    2.1658054     4.549774  0.010534675 
  112000    1.6127021 -0.0061917448     2.138351    4.5497462 -0.0074917044 
  112200    1.6266435 -0.0075243247    2.1187756    4.5497378 -0.0060239657 
  112400    1.5830964 -0.0046835308     2.181653    4.5501749 -0.0021502335 
  112600    1.6494611 -0.0042785392    2.0812489    4.5496624 0.0093550577 
  112800    1.5633498 -0.0052754789    2.2119287    4.5502567 0.00012691927 
  113000    1.5936729 -0.0055455204    2.1667428    4.5502578 0.00051764821 
  113200    1.6227444 -0.0045187559    2.1223268    4.5504495 -0.0008679541 
  113400    1.5895941 -0.0077695654    2.1749434      4.55012 0.0023475554 
  113600    1.6135215 -0.0051822272    2.1367848     4.550418  0.010046989 
  113800    1.5779536 -0.010602022    2.1958259    4.5507198 0.00050374763 
  114000    1.6392365 -0.0082948171    2.1012802      4.55035 0.0049993352 
  114200    1.6371849 -0.0076983031    2.1038737    4.5504644 0.0032058662 
  114400    1.5696597 -0.0080052542    2.2060784    4.5511357  0.001703203 
  114600    1.5770544 -0.008031493     2.195115    4.5512314 -0.0017587873 
  114800    1.6208927 -0.0096310106    2.1306384    4.5508728 0.0065352109 
  115000     1.571845 -0.0092392967    2.2047261    4.5518253 -0.0014338693 
  115200    1.6040132 -0.010525693    2.1581806    4.5522166 0.0049406763 
  115400    1.5994112 -0.0094866405    2.1639445    4.5521207 0.0041863962 
  115600    1.6148453 -0.0076823502    2.1393707    4.5524882 -0.0033576191 
  115800     1.624533 -0.0044655228    2.1221559     4.553013   0.00904848 
  116000    1.5893814 -0.0074033439    2.1773857    4.5526096 0.0028179493 
  116200    1.6112954 -0.010682096    2.1480979    4.5528941 0.0027111847 
  116400    1.5951587 -0.010243997    2.1720996    4.5531436 -0.0010575517 
  116600    1.5591181 -0.0070598872    2.2236224    4.5538222 0.0010899765 
  116800    1.6486233 -0.011432812    2.0931439    4.5531472 -0.0020037626 
  117000    1.5918248 -0.0067020728    2.1741136    4.5537017 0.0042571359 
  117200    1.6077566 -0.0069852887    2.1505544    4.5537425  0.003519539 
  117400    1.6128177 -0.0087864181    2.1448105    4.5537843 -0.0033791413 
  117600    1.6170388 -0.0081525554    2.1381806    4.5541162 -0.0025129222 
  117800    1.5977425 -0.0095102568    2.1690377    4.5546887 0.0031057932 
  118000    1.5954398 -0.012773654    2.1757289    4.5546645 0.0048595462 
  118200    1.5940777 -0.012847598    2.1782742     4.555094 0.00054440142 
  118400    1.5961021 -0.0093667883    2.1715271    4.5548625 0.0022874138 
  118600    1.5794331 -0.0088434778     2.196762    4.5556323  0.003586719 
  118800    1.5813793 -0.0097607595    2.1956543    4.5565249 0.0014109376 
  119000    1.5910083 -0.010409674    2.1822537      4.55691 0.00081404098 
  119200    1.5924055 -0.0093638593    2.1789291    4.5567258 -0.0039090352 
  119400    1.5715109 -0.0093040167    2.2112866    4.5578203 0.0031874014 
  119600    1.6304849 -0.0080950834    2.1208359     4.556986 0.0064686548 
  119800    1.6081045 -0.008149117    2.1552101    4.5577559 -0.0019241197 
  120000    1.6003553 -0.011375376     2.170048    4.5577507 -0.0018170396 
  120200    1.6002494 -0.0074843391    2.1664668    4.5579017  0.010324379 
  120400    1.5901002 -0.0059106183    2.1803715    4.5581657 0.0020025823 
  120600    1.6139697 -0.008095539     2.146767    4.5581589 0.0016953638 
  120800    1.6221051 -0.0071920168     2.133633     4.558124 -0.0016052005 
  121000    1.6255784 -0.0095163831    2.1308306    4.5582041 0.0027790824 
  121200    1.6144749 -0.010783346    2.1490977     4.558559 0.0089066964 
  121400    1.6243531 -0.013506698    2.1367486    4.5582948 0.0066996352 
  121600    1.5970048 -0.0097873765    2.1746451    4.5589131 -0.004133254 
  121800    1.6043861 -0.0081398748    2.1622511    4.5592318 0.0038384243 
  122000    1.6142734 -0.0091463563    2.1482352    4.5590315  0.002531168 
  122200    1.6206445 -0.0098461779    2.1397356    4.5593829 0.0061343219 
  122400     1.584606 -0.010416217    2.1945297    4.5595819  0.000302034 
  122600    1.6072272 -0.010058048    2.1599995    4.5593212 -0.00035198695 
  122800    1.6084616 -0.009478455    2.1579042    4.5596559 -0.0013197815 
  123000    1.5993182 -0.0080176879    2.1705295    4.5600352 -0.0034655397 
  123200    1.5793544 -0.0096908614    2.2020205    4.5599256  0.004839475 
  123400    1.6157432 -0.0088943982    2.1468747    4.5601262 0.0092764668 
  123600    1.5784042 -0.010288956     2.204344    4.5602264 0.0047019985 
  123800    1.6244893 -0.0083870362    2.1333011    4.5601711 0.0016599851 
  124000    1.5876639 -0.011178213    2.1919244    4.5607988 -0.0027277728 
  124200    1.6122798 -0.0099300698    2.1539793    4.5610032 -0.00031766711 
  124400    1.5810463 -0.0088773321    2.2002932     4.561548 0.0062643475 
  124600    1.5911099 -0.0072470931    2.1838576    4.5618289 -0.0046404876 
  124800    1.6304832 -0.0059289198    2.1239389    4.5622525   0.00140566 
  125000    1.5998224 -0.0084328598    2.1727948    4.5626412 0.0015023124 
  125200    1.6383674 -0.007906941    2.1146146    4.5627693 0.0029769521 
  125400    1.6110217 -0.0078985513    2.1558886     4.563058 -0.0054198866 
  125600    1.5787917  -0.00595269    2.2022789    4.5630784 0.0010753525 
  125800    1.6299204 -0.0068519147    2.1264101     4.562957 0.0060906755 
  126000    1.5666736 -0.0068126832      2.22203    4.5638034 0.0022927424 
  126200    1.5825556 -0.0061608514    2.1976298    4.5638637 0.0040002242 
  126400    1.5880543 -0.0058994989    2.1890623    4.5638005  -0.00291243 
  126600     1.575858 -0.0063204335    2.2079809    4.5640149 -0.0030686519 
  126800    1.5918916 -0.0052023523    2.1829226    4.5641105 -0.0035362495 
  127000    1.6216679 -0.006713673    2.1398899    4.5642039 0.0044791171 
  127200    1.6017888 -0.0047373728    2.1683923     4.564882 -0.004184305 
  127400     1.608246 -0.0060717501    2.1602436    4.5650788 0.0004700117 
  127600    1.5769766 -0.0067817608    2.2080517    4.5653012 -0.0013013103 
  127800     1.604565 -0.0091026587    2.1695713    4.5658574 0.0064042292 
  128000    1.5786206 -0.0093202571    2.2089142    4.5660897 -0.0012916702 
  128200    1.5936617 -0.0079746992    2.1855651    4.5666341 -0.0046234196 
  128400    1.5827244 -0.0076183316     2.202224    4.5672534 0.0023558882 
  128600    1.6175666 -0.008285789    2.1504431    4.5670367 0.0071057139 
  128800    1.6223931 -0.0079805703    2.1432498     4.567384 -0.0046696567 
  129000    1.6479927 -0.0067086015    2.1035912    4.5673735  0.001191168 
  129200    1.6158015 -0.0058974604    2.1517148    4.5680506  0.001457903 
  129400    1.6231609 -0.0041736356    2.1390878    4.5681799 -0.0031062877 
  129600    1.5902547 -0.0057436328    2.1904321    4.5686249 0.0067380877 
  129800    1.6160822 -0.0093134438    2.1549527    4.5682933 0.0053413255 
  130000    1.6058168 -0.009022082    2.1701589    4.5684022 -0.0041286716 
  130200    1.6079403 -0.0076283496    2.1660127    4.5688331 6.2123878e-05 
  130400    1.5785384 -0.0070363981    2.2096424    4.5689785 0.0042467553 
  130600    1.6011738 -0.0075245449    2.1762503    4.5690308 0.0043541748 
  130800    1.6253033 -0.007003403    2.1391978    4.5686717 0.00027374044 
  131000    1.6337374 -0.0080354054    2.1274355    4.5685209  0.011390072 
  131200    1.6060199 -0.0078945096    2.1693757     4.569051 -0.0036080728 
  131400    1.6127006 -0.0085276401    2.1598512    4.5689083 -0.0019175016 
  131600    1.5993518 -0.0072707101    2.1791082    4.5694113 0.00060451489 
  131800    1.5981114 -0.0064199577     2.180341    4.5696354 -0.0014936696 
  132000    1.6127348 -0.0087619235    2.1607715    4.5696456 0.0018576755 
  132200    1.5995711 -0.010269474    2.1818911    4.5695241 -0.0018024596 
  132400    1.5879562 -0.0089823926    2.1987134    4.5702217 0.0031992958 
  132600    1.5913309 -0.0080491697     2.193222    4.5707225 0.0011359038 
  132800    1.6163904 -0.007446838    2.1546003    4.5702697 0.0053492871 
  133000    1.6012367 -0.0064083132    2.1765762    4.5705672 0.00034725464 
  133200    1.6397308 -0.010223776    2.1226819    4.5705635 0.0043059652 
  133400    1.6175044 -0.0090576689    2.1549543    4.5706829 0.0058090963 
  133600    1.6295035 -0.0072597094    2.1356188     4.571133 0.0032133461 
  133800    1.6128367 -0.0093422318    2.1631906    4.5716373 -0.001454079 
  134000    1.5965398 -0.011587844    2.1907516    4.5725221 0.0025632606 
  134200    1.6079489 -0.011063779    2.1729134    4.5723112 0.0035142989 
  134400    1.6125355 -0.0034834959    2.1581953    4.5720491  0.010034295 
  134600    1.6413249 -0.012830763    2.1240975     4.571762 0.0039211762 
  134800    1.6143987 -0.0097815584    2.1625948    4.5729435   0.00730472 
  135000    1.6339415 -0.013848356    2.1365605     4.572139 0.0018890788 
  135200    1.6179954 -0.011886827    2.1586973    4.5723327 -0.0022766801 
  135400    1.5669757 -0.015323715    2.2392967    4.5730121 3.0000894e-05 
  135600    1.6220504 -0.018723212    2.1600412     4.572919  0.003508253 
  135800    1.5989369 -0.013827016    2.1902851    4.5734098 -3.1711797e-05 
  136000    1.6326353 -0.012847309    2.1387602    4.5733816 -0.00045868871 
  136200    1.6183457 -0.008118606    2.1555657    4.5734944 0.00064575945 
  136400    1.5793811 -0.0090761479    2.2148926    4.5734523 -0.0045994643 
  136600    1.5793613 -0.009012635    2.2150636    4.5736572 0.0017081032 
  136800    1.6243272 -0.0074074568    2.1459546    4.5735613 0.0070440396 
  137000    1.5874366 -0.0067653758     2.201022    4.5739685 -0.003055994 
  137200     1.624322 -0.0064993429    2.1454605    4.5739675 0.0064796661 
  137400    1.5861764 -0.0067132832    2.2032784    4.5743877 0.0033044653 
  137600    1.6453075 -0.0048535923    2.1130355    4.5746474 0.0030993481 
  137800     1.640153 -0.0051971728    2.1213951    4.5749363 0.0016704225 
  138000    1.5698783 -0.0045725756    2.2262843     4.575102 -0.0036616618 
  138200    1.6209005 -0.0081078164     2.153496    4.5752654  0.010315812 
  138400    1.6292355 -0.0058658917    2.1387026    4.5752088 0.0063630209 
  138600    1.6082415 -0.0050111516    2.1700901    4.5759792 -0.00046796163 
  138800    1.5850003 -0.0052458858    2.2052126    4.5760263 -0.0011925028 
  139000    1.5964692 -0.0086068418    2.1913205    4.5759661 -0.00051424325 
  139200    1.6106036 -0.0058586597    2.1676113    4.5761938 0.0042396687 
  139400     1.627367 -0.0064129431    2.1439034    4.5770616 0.0060027397 
  139600    1.6040795 -0.008343568    2.1805735    4.5768909 -0.0036530001 
  139800    1.6127886 -0.0062756241    2.1656865    4.5771277 0.0027732557 
  140000    1.6300791 -0.0078033742    2.1408215    4.5766549 0.00077208956 
  140200    1.6448356 -0.0076065786    2.1189381    4.5770896 0.0049380468 
  140400    1.6217073 -0.0061780798     2.152546    4.5774546 0.0029216783 
  140600    1.6256231 -0.0070415756    2.1476234    4.5775386 0.0072390706 
  140800     1.594755 -0.0062877017    2.1929013    4.5772963 -0.0090548591 
  141000    1.6268344 -0.0099995191    2.1483077    4.5770809 0.0034317428 
  141200      1.58523 -0.010894704    2.2121411    4.5776502 0.0033466862 
  141400    1.6432309 -0.013505054    2.1274567    4.5773042 0.00016630744 
  141600     1.622519 -0.0075677222    2.1530437    4.5777794 -0.0019029507 
  141800    1.5952044 -0.0097114718    2.1965427    4.5781876 0.0037743172 
  142000    1.6023012 -0.0088146383    2.1854065     4.578587 -0.00021380584 
  142200     1.607056 -0.0072791186     2.176405     4.578249 0.0035186394 
  142400    1.6213294 -0.0089392806    2.1568703    4.5784511 0.0047729543 
  142600     1.634948 -0.0074421268    2.1353913    4.5788848 0.0027571088 
  142800    1.6263109 -0.0076514488     2.148677    4.5790134 -0.0039540736 
  143000    1.6050323 -0.0075623458    2.1811725    4.5796996  0.010332063 
  143200    1.6211838 -0.0083323512    2.1578363    4.5798059  0.001320076 
  143400    1.6001183 -0.0090317688    2.1895176    4.5792086 -0.0011555225 
  143600    1.5869278 -0.0085744775    2.2093907    4.5797653 0.0020440548 
  143800    1.6087523 -0.0057580847    2.1739832    4.5798911 0.0052765708 
  144000    1.6132369 -0.0049723269     2.166754    4.5801703 0.0015979427 
  144200    1.6293102 -0.0066883447    2.1442235    4.5800193 -0.00048486458 
  144400    1.6036612 -0.0065752381    2.1841439    4.5816026 0.0053665092 
  144600    1.5888916 -0.0036703007    2.2029974      4.58122 -0.0044222574 
  144800    1.6198705 -0.0054170946    2.1582101    4.5811261 0.0022186121 
  145000    1.6193533 -0.0053156339    2.1590235    4.5812657 0.0059618462 
  145200    1.5941642 -0.0070542413    2.1987798    4.5815226 -0.0023078532 
  145400    1.6164158 -0.0041374699    2.1627647    4.5817815 -0.0011060345 
  145600    1.6044092 -0.0063040987    2.1830447    4.5818958 0.0035364691 
  145800    1.6230435 -0.0069262218    2.1564442    4.5826078 0.0073282835 
  146000     1.639345 -0.0054712092    2.1306926    4.5827485 -0.001721273 
  146200    1.6142103 -0.0043900979    2.1675331     4.582991 0.0072635228 
  146400     1.562217 -0.0051310238    2.2469985    4.5837728 0.0035197061 
  146600    1.6412008 -0.0056136057    2.1281654     4.582861 0.0063158613 
  146800    1.5975232 -0.0050731838    2.1935536     4.583313 0.0071020902 
  147000    1.6189182 -0.0051440854    2.1617647    4.5835262 0.0056377393 
  147200    1.6078063 -0.0068022576    2.1804145    4.5838601 -0.0081163225 
  147400    1.6219095 -0.0094023435    2.1621454    4.5841329 0.0040918237 
  147600    1.6462514 -0.0078805201    2.1238975    4.5838975  0.010230538 
  147800    1.5890362 -0.0046373023    2.2072819    4.5847544 0.0015255621 
  148000    1.5780685 -0.0055951334    2.2248434    4.5849164 -0.0017549591 
  148200    1.6137698 -0.007314455     2.173341    4.5852142 0.0011820636 
  148400    1.5999061 -0.0068145839    2.1938452    4.5854354 -0.0064155496 
  148600     1.593251 -0.0046608363    2.2022404    4.5860077  0.013365616 
  148800     1.628441 -0.0044365211    2.1489004    4.5856449  0.006465737 
  149000    1.6136366 -0.0050333377    2.1715667    4.5855214 -0.0010350696 
  149200    1.5591462 -0.0035196678    2.2525786    4.5863608 -0.007246321 
  149400    1.5822504 -0.0045379424      2.21857    4.5859692 0.0051057805 
  149600    1.5891948 -0.0062649642    2.2104732    4.5865556 0.0012214526 
  149800    1.5907788 -0.0068995746    2.2091632    4.5869857 -0.0036684563 
  150000    1.6134225 -0.0076677309    2.1758806    4.5868798  0.008371491 
  150200    1.5943118 -0.008043033    2.2047276    4.5867029 -0.0024627637 
  150400    1.5874841 -0.0070748143     2.214669    4.5873771 0.0025936407 
  150600    1.5931764 -0.0085517728    2.2073606    4.5871251 0.0041313275 
  150800    1.6305914 -0.0094043628    2.1522334    4.5872337 0.0020024098 
  151000    1.6085387 -0.011139622    2.1874547    4.5876609 -0.00089778086 
  151200    1.6503337 -0.0095005078    2.1239127    4.5884124 0.0092884836 
  151400    1.5998701 -0.0064310843    2.1971259    4.5890456 0.0019858788 
  151600    1.5983805 -0.0082948062    2.2013016    4.5891245 0.0061219905 
  151800    1.6320736 -0.0059397489    2.1482059    4.5888928 -0.0010478155 
  152000    1.6125813 -0.0050586792    2.1765377    4.5888849 -0.00037329423 
  152200    1.6131542 -0.0087062917    2.1798765     4.589435  0.003270278 
  152400    1.6168016 -0.0099270513    2.1756083    4.5894138 0.0055322106 
  152600    1.6026849 -0.0078266351    2.1950327    4.5897764  0.003139006 
  152800    1.6528079 -0.0056011022    2.1175465    4.5896546 0.00029748933 
  153000    1.6294045 -0.0049850056    2.1519116    4.5895521 -0.0001990309 
  153200    1.6328742 -0.0045520458    2.1463608    4.5896356 0.0034473147 
  153400    1.5858563 -0.0053163834    2.2181383    4.5901647 0.0017668796 
  153600    1.6405431 -0.0072015379    2.1384649    4.5905866 0.0022899945 
  153800    1.6093539 -0.0080935862     2.186417    4.5908912 -0.002276347 
  154000     1.587378 -0.0040440033    2.2159847    4.5915646 0.0037572832 
  154200    1.6263781 -0.0096297065    2.1628147    4.5912736 0.0024522197 
  154400    1.5855732  -0.01080948    2.2253942    4.5915031 -5.8613842e-05 
  154600    1.5469696 -0.0083165109    2.2810496    4.5917812 0.0033244843 
  154800    1.5761851 -0.0074534794    2.2364855    4.5918768 -0.0030724893 
  155000    1.5980559 -0.0062318099    2.2026767     4.592076 -0.00097399567 
  155200    1.6052316 -0.0076872664    2.1938815    4.5925823 0.0011520069 
  155400    1.5983759 -0.0087981163    2.2055189    4.5928316  0.004617467 
  155600    1.6009424 -0.0096762138    2.2022502    4.5925323 0.0038582608 
  155800    1.6205796 -0.0060320496    2.1693564    4.5927205 0.0028659987 
  156000    1.6371913 -0.0052827967    2.1442318    4.5932476 -0.0007003054 
  156200    1.6058719 -0.0081483069    2.1943838    4.5935834 0.0022925582 
  156400    1.6262918 -0.0073061462    2.1628741    4.5935272 0.0077425832 
  156600     1.602081 -0.0091670453    2.2007808    4.5932789 -0.004600515 
  156800    1.6426911 -0.0084771498    2.1394411    4.5935073 1.4923265e-05 
  157000    1.6033941 -0.011260931    2.2014396    4.5938122 -0.0023270193 
  157200    1.6155338 -0.0065540623    2.1785282    4.5938061 0.0098190008 
  157400    1.5748667 -0.0083235053    2.2419626    4.5945075 -0.002597633 
  157600    1.6050673 -0.0096920521    2.1977824    4.5942321  0.002040963 
  157800    1.5665086 -0.011579255    2.2578026    4.5945622 -0.0060689847 
  158000     1.633246 -0.0089496216    2.1550983    4.5945329    0.0058552 
  158200    1.5672306 -0.0077825297    2.2536606    4.5952992 0.0039200365 
  158400    1.5957605 -0.0082661631    2.2115793    4.5955032 0.0015505589 
  158600    1.6080193 -0.0069089448    2.1918507    4.5955089 0.0048018278 
  158800     1.572909 -0.0099229224      2.24759    4.5956006 0.00078125746 
  159000    1.6004556 -0.012002451    2.2087781    4.5960041 0.0082562414 
  159200    1.6054072 -0.0049795163    2.1944602     4.596132 0.0058684916 
  159400    1.6050902 -0.0062059452     2.196271    4.5962412 -0.0032161083 
  159600    1.6474239 -0.0073581814    2.1345435    4.5968236 -0.00096068135 
  159800    1.5838393 -0.0071892533    2.2299822    4.5971121 -0.005846433 
  160000    1.5924355 -0.0056977228    2.2160728    4.5975807 -0.0019094651 
  160200    1.6217307 -0.0071039072    2.1736343    4.5976521 0.00056710955 
  160400    1.6409102 -0.0065748849    2.1452315    4.5985301 -0.0025918633 
  160600    1.6087171 -0.0070002624    2.1936794    4.5982924 0.0064683263 
  160800    1.6265853 -0.0066333461     2.166585    4.5983508  0.002899493 
  161000    1.5700924 -0.0059185285    2.2513241    4.5991169 -0.00069181821 
  161200    1.6068475 -0.0068652202    2.1966932    4.5986384 0.00098105505 
  161400    1.6252433 -0.0059475151    2.1690228    4.5994627 0.0032015824 
  161600    1.5905743 -0.0058935718    2.2206864    4.5992083 -0.0069648894 
  161800    1.6054795 -0.0083798578    2.2010499    4.5994299 0.0060505625 
  162000    1.5764235 -0.0076426418    2.2438337    4.5993932 0.0032042951 
  162200    1.6528324 -0.0065569254    2.1276112    4.5988003 0.0059609107 
  162400    1.5912013 -0.0060362233    2.2203918    4.5997109  0.001357551 
  162600    1.5796665 -0.0045612766    2.2368376    4.6003401  0.004702704 
  162800    1.6217792 -0.008212623     2.176629    4.5996108  0.011253223 
  163000    1.6236057 -0.010585056    2.1764214    4.5997688 -0.0010688997 
  163200    1.5785406 -0.0093298226    2.2427934    4.5998394 -0.0037891296 
  163400    1.6408574 -0.0080129991    2.1472215    4.5990029 0.0073880303 
  163600    1.6066247 -0.0085040545    2.1999591    4.5999315 -0.007138193 
  163800    1.5956297 -0.0080756022    2.2162825    4.6002008 -0.0090451314 
  164000    1.6150637 -0.0099660437    2.1891213    4.6002826  0.003134276 
  164200    1.6416628 -0.010097023    2.1500426    4.6009473 0.0026053727 
  164400     1.595857 -0.0096467698    2.2181301    4.6008181 0.0011170741 
  164600    1.5996661 -0.012024852    2.2150675    4.6010876 0.0050944064 
  164800    1.5916333 -0.011191859    2.2267497    4.6015608 0.00010532192 
  165000     1.591727 -0.0082290214    2.2238593    4.6017738 -0.00096371216 
  165200    1.5992732 -0.010138577    2.2146401    4.6019575 0.0029557998 
  165400     1.601272 -0.010190138    2.2117747    4.6020368 0.0034254693 
  165600    1.6602998 -0.0081288099    2.1210319    4.6018434  0.004424601 
  165800     1.607467 -0.0075796283    2.2006313    4.6027908 0.0012145397 
  166000    1.6089137 -0.0071112685    2.1978223    4.6026189 -0.00043417699 
  166200    1.5890502 -0.0098432491    2.2310072    4.6032947 -0.0038375867 
  166400    1.6505218 -0.004895936    2.1339751    4.6033614 0.0073142897 
  166600    1.6115899 -0.0062457274    2.1939064    4.6035804 -0.0051079028 
  166800    1.5934784 -0.0056129551    2.2202065    4.6033625 0.00045516975 
  167000    1.5846498 -0.0068754446    2.2350544    4.6037131 0.0056138764 
  167200    1.6125149 -0.0082787428    2.1946217    4.6036495 0.00071388881 
  167400    1.5935813 -0.0067761067    2.2214071    4.6035542 -0.00077325052 
  167600    1.6074052 -0.0074930897    2.2017722    4.6039256  0.002266057 
  167800    1.6305487 -0.0067764802    2.1672992    4.6048634 -0.0067035865 
  168000    1.5947974 -0.005365953    2.2196278    4.6050082 -0.0031513594 
  168200    1.5901781 -0.0064947504    2.2276645    4.6049913 -0.0047958328 
  168400    1.6129711 -0.0044318975    2.1918509    4.6054093 0.0052623437 
  168600    1.5902899 -0.0048173993    2.2258623    4.6050339 0.0055748451 
  168800    1.5861797 -0.0047508345    2.2326694    4.6057462 -0.0027313692 
  169000    1.5823151 -0.0039510953    2.2378733    4.6059564 -0.0067788514 
  169200    1.6129996 -0.0038977703    2.1917011    4.6058363 0.0034672139 
  169400    1.6061525 -0.0063652812     2.204596    4.6059993 -0.0051501021 
  169600     1.609055 -0.007154389    2.2011786    4.6061439 -0.0012171033 
  169800    1.6205666 -0.0065499577    2.1840901    4.6069168 0.0012011792 
  170000    1.6056577 -0.0059356882    2.2060266    4.6071177 -0.0060986993 
  170200    1.5975364 -0.0049785033    2.2173242    4.6071979 -0.0038782798 
  170400    1.5973153 -0.0040128192    2.2172066    4.6077146   0.00273259 
  170600    1.5886198 -0.004438649    2.2300031      4.60705  -0.00157386 
  170800    1.6071905 -0.0062340787    2.2041239    4.6072144 0.0060812703 
  171000    1.6064467 -0.0056846803    2.2052837    4.6078086 -0.0059331752 
  171200    1.6315217 -0.0068344398    2.1686261     4.607591 0.00024540899 
  171400    1.6192739 -0.0080528084    2.1882818    4.6076678 0.0025004054 
  171600    1.6084846 -0.0086958775    2.2051884    4.6077572 -0.00070492993 
  171800    1.6006779 -0.0073035982    2.2159995    4.6082575 -0.00044143282 
  172000    1.6491365 -0.0058866455    2.1419191     4.608238 0.0026098428 
  172200     1.616069 -0.0040253416    2.1900274    4.6086365 -0.0083632806 
  172400    1.5727006 -0.00078703745    2.2526415    4.6094756 0.0016166933 
  172600    1.5807309 -0.0035922399    2.2431819     4.609249 -0.0060262302 
  172800    1.6362251 -0.0059620131    2.1630347    4.6099229 0.0047456526 
  173000    1.6192545 -0.0070886793    2.1899195    4.6102405 0.0061223081 
  173200    1.6120553 -0.0070002301    2.2006196    4.6102369 -0.0053208135 
  173400     1.635892 -0.0053051844    2.1635575    4.6106031 0.0017163406 
  173600    1.6427854 -0.0058564435    2.1539865    4.6108148 0.0054069847 
  173800    1.6056896 -0.0070232976    2.2112205     4.611272 0.00079268549 
  174000    1.5794218  -0.01019269     2.254217    4.6117211 0.0030307319 
  174200     1.603134 -0.0080018269    2.2163924    4.6116342 -0.00028733155 
  174400    1.6384769 -0.0075426836    2.1628721    4.6115553 0.0018557817 
  174600    1.6268017 -0.0082589205    2.1812553    4.6117201 0.00046819943 
  174800    1.6105103 -0.0055948093    2.2033317    4.6120383 0.0039562462 
  175000    1.5785949 -0.0070538863    2.2533034    4.6127068 0.0028423121 
  175200    1.5820624 -0.0083775966    2.2491754    4.6124532 -0.0058137055 
  175400     1.583427 -0.0078343662    2.2463272    4.6121938 0.0038003358 
  175600    1.6267206 -0.0097787314    2.1840988    4.6129221 0.0067712959 
  175800    1.6511778 -0.0085481396    2.1459894    4.6127068 -0.0010849971 
  176000    1.5585566 -0.011535969    2.2873908    4.6122729 -0.007061766 
  176200    1.6184448 -0.010727984    2.1967852    4.6122531 0.0083118097 
  176400    1.5784329 -0.006273687    2.2533534    4.6132941 -0.0057226401 
  176600    1.6273404 -0.0080827526    2.1812278    4.6126762  0.014256774 
  176800    1.5725207 -0.0060229466    2.2621475     4.613476 -0.0016701531 
  177000    1.5817082 -0.0071034801    2.2501621     4.614183 -0.0013964304 
  177200    1.6188423 -0.0077576436    2.1946121    4.6136463 0.0036836852 
  177400    1.6035656 -0.0057359807    2.2156503    4.6138049 -0.0050398106 
  177600    1.6128818 -0.0060873226    2.2018019     4.613571 0.00094906485 
  177800    1.6095683 -0.0051720203    2.2066258    4.6143431 -0.0012629692 
  178000    1.6213825 -0.0063147638     2.189681     4.613966 -0.0035186505 
  178200    1.6362721 -0.0029951225    2.1645657    4.6144912 -0.00010815408 
  178400    1.5671342 -0.003177428    2.2694473    4.6155466 -0.0041247594 
  178600    1.5881998 -0.0043762901    2.2384049    4.6148845 -0.0012745544 
  178800    1.6182805 -0.005393828    2.1944218    4.6149776 0.0021984465 
  179000    1.6257571 -0.0052336976    2.1831767    4.6151007 0.0031449044 
  179200    1.6222402 -0.0067968425    2.1904874    4.6155761 0.0054495713 
  179400    1.6158408 -0.008163476    2.2017452     4.615874  0.012753545 
  179600    1.6461776 -0.0061982283    2.1537374     4.615309 0.0007878154 
  179800    1.6234387 -0.0057069146    2.1877049    4.6156802 -0.0012040134 
  180000    1.5808688 -0.0058125054     2.252261    4.6163146 0.0028431115 
  180200    1.6075819 -0.004574426    2.2108996    4.6162367 0.0054938756 
  180400    1.6065069 -0.0080820753    2.2164632     4.616681 0.0004641527 
  180600    1.6094643 -0.0052927234    2.2095449    4.6169855 0.0053650291 
  180800    1.6014087 -0.0058501532    2.2222421    4.6170492 -0.00051913523 
  181000    1.6172195 -0.005603363    2.1984361    4.6171918 0.00085333464 
  181200    1.6344444 -0.0057286529    2.1732714    4.6177234 0.0040875931 
  181400    1.6216164 -0.0062684218    2.1926399    4.6173218 0.0052702558 
  181600    1.5976146 -0.0074333114    2.2306385    4.6181747 0.0033592053 
  181800    1.6572588 -0.0067191708    2.1398239    4.6174863 -0.00067712125 
  182000    1.6217833 -0.0093315471    2.1960358    4.6179049 -0.0039340691 
  182200    1.6326745 -0.006996381    2.1774587    4.6179898 0.0030977846 
  182400    1.6132174 -0.0076016432     2.207875    4.6186329 0.0025683244 
  182600    1.6114526 -0.0067499497    2.2095936    4.6185575 0.0025593476 
  182800    1.5854939 -0.005164967    2.2472664    4.6189009 0.0051037439 
  183000    1.6072873 -0.0061387028    2.2155134    4.6188444 -0.007174463 
  183200    1.6049558 -0.0042199519    2.2173682    4.6191228 -0.0021811983 
  183400    1.5760921 -0.0048351727    2.2617215    4.6195917 0.0031440228 
  183600    1.6179531 -0.0073121103    2.2013023     4.619449 -0.0020924483 
  183800     1.616649 -0.0095966734    2.2049134    4.6188206 0.00084745108 
  184000    1.5837989 -0.0085226345    2.2537061    4.6194421 0.0052598846 
  184200     1.610092 -0.0059003079    2.2117274    4.6195013 -0.0032454266 
  184400    1.6184788 -0.0081268577    2.2019793    4.6200992 0.00080133362 
  184600    1.6203086 -0.0058690935    2.1973068    4.6204277 0.0020626444 
  184800    1.6319581 -0.0066288015    2.1809484    4.6207731 0.0064741069 
  185000    1.6075947 -0.0058243962    2.2171457    4.6212519 0.0039422152 
  185200     1.574622 -0.0082975507    2.2690811     4.621285 0.0041004681 
  185400    1.5873644 -0.0071669528    2.2490677    4.6215043 -0.0082624439 
  185600    1.6181164 -0.0062052913    2.2020982    4.6215964 -0.0016941261 
  185800        1.635 -0.0075177239    2.1782531     4.621749 0.0050553512 
  186000    1.6141162 -0.007825981    2.2103309    4.6222118 0.0012152482 
  186200    1.6043197 -0.0044847275    2.2216953    4.6222317 -0.0049355594 
  186400    1.6119983 -0.0066935746    2.2130829    4.6229212  0.004508199 
  186600    1.6220014 -0.007481958    2.1987191    4.6227646 0.0096714001 
  186800    1.6140849 -0.0087013347    2.2120673     4.623026 0.0050739551 
  187000    1.6166725 -0.0061578477    2.2058147    4.6231959 0.00086824854 
  187200    1.6202268 -0.0064597075    2.2006179    4.6230255 0.0038646445 
  187400    1.6218168 -0.0071482735     2.199461    4.6235635 0.0029815808 
  187600     1.633475 -0.0092409453    2.1839276    4.6234142 -0.0026613469 
  187800    1.6050305 -0.0081589741    2.2255575    4.6234852 0.00088933848 
  188000    1.6284475 -0.0096387595    2.1918916    4.6234437 0.0016060228 
  188200    1.6167154 -0.010465629    2.2105432    4.6236809 -0.0041535105 
  188400    1.5913803 -0.0068834191    2.2453092    4.6240494 0.0061055095 
  188600      1.58779 -0.0097928062    2.2532527    4.6237014 -0.0019790494 
  188800      1.59091 -0.0085487163    2.2483654    4.6247354 -0.0060537844 
  189000    1.5970329 -0.010054456    2.2406841    4.6247271 0.0022846159 
  189200    1.6227789 -0.0098689988    2.2017506    4.6245747 -0.0029204536 
  189400    1.6252721 -0.011636445    2.2008726    4.6256668 -0.0013097905 
  189600    1.6063136 -0.0091568076    2.2269981    4.6258514 0.0041258681 
  189800    1.5982839 -0.0085515363    2.2387116     4.626133 -0.003122773 
  190000    1.5977351 -0.0084057851    2.2395161    4.6262605 -0.001274213 
  190200    1.5953377 -0.0097714089    2.2449526    4.6267375 0.00021176416 
  190400    1.6176166 -0.0070874096    2.2091755    4.6270424 0.0026377235 
  190600    1.6115794 -0.0091794807    2.2207513    4.6274758 -0.0028699502 
  190800    1.5973894 -0.0075325002    2.2408157    4.6279151 0.0098743575 
  191000    1.5900861 -0.0085176768    2.2531471     4.628313 -0.0053764531 
  191200     1.603048 -0.0090682053    2.2340332    4.6280796 -0.0055048909 
  191400     1.605669 -0.0083872712    2.2297612    4.6284177 0.0071738286 
  191600    1.6334231 -0.0062225457    2.1858992    4.6283264  0.007277801 
  191800    1.5728492 -0.0076899257    2.2784509    4.6286049 -0.0049231869 
[...]
  454200    1.6857989 -0.0059197582    2.3733637    4.8946098 -0.0035576465 
  454400    1.6829002 -0.0029762022     2.375173    4.8950172 -0.00059228652 
  454600    1.7178029 -0.0036686789    2.3233109    4.8947848 -0.0015014449 
  454800    1.6723053 -0.0047282684    2.3927629    4.8949723 -0.0042313974 
  455000    1.7264044 -0.007611758    2.3150754    4.8955007 0.0013837607 
  455200    1.6653289 -0.0031912442    2.4023471    4.8956353 0.0057295578 
  455400    1.6986632 -0.0046613604    2.3534183    4.8952076 -0.0077710929 
  455600    1.7277586 -0.0036129224    2.3090857      4.89554 0.0033466644 
  455800    1.7086941 -0.0035087901    2.3381745    4.8961535 0.0036089889 
  456000    1.7320018 -0.0038771144    2.3035358    4.8960869 -0.0023609809 
  456200    1.7086004 -0.0048693753    2.3405596    4.8970376 0.0017048927 
  456400    1.6768735 -0.0064934375    2.3899899    4.8972823 0.0050429769 
  456600    1.7280354 -0.0061393965    2.3125876    4.8969303 -0.00046390844 
  456800    1.7404566 -0.006496834    2.2944972     4.897103 0.0098344789 
  457000    1.6757399 -0.0028725225    2.3889968    4.8982108  0.003688109 
  457200    1.7153422 -0.0062799719    2.3330297    4.8982036 -0.0021596911 
  457400    1.7502983 -0.0054630644    2.2794943    4.8978874  0.010030954 
  457600    1.7512687 -0.0065369595    2.2789631    4.8977372 0.0027484086 
  457800    1.7143635 -0.0063955871    2.3347475    4.8983385 0.0012945843 
  458000    1.6803042 -0.0065887593    2.3861951    4.8985352 -0.0023316902 
  458200    1.7077688 -0.0063518204    2.3448474    4.8985962 0.0066553379 
  458400    1.7155459 -0.0071581368    2.3337729     4.898374  -0.00452713 
  458600    1.7275324 -0.0078761586    2.3167022    4.8985542  0.013947617 
  458800    1.6890976 -0.0054550303    2.3727769    4.8994327 0.0050425713 
  459000    1.7363424  -0.00751857    2.3044118    4.8998284   0.00344498 
  459200    1.6796271 -0.0051499485    2.3871327    4.8998964 -0.012781883 
  459400    1.7078877 -0.0037548632    2.3432395    4.8997635 0.0022835209 
  459600    1.6945971 -0.0043485977    2.3639714    4.8999779 -0.00068837704 
  459800    1.6688246 -0.0060015286    2.4048993    4.9006175 -0.0018245806 
  460000    1.6874361 -0.003764502    2.3744761    4.9003318 0.0039169273 
  460200    1.7236015 -0.007036621    2.3228856    4.8996844 -0.0028100534 
  460400    1.7077896 -0.0060235904    2.3460925    4.9002007 0.0023989334 
  460600    1.7092943 -0.0046188698    2.3433717    4.9011403 0.0049237032 
  460800    1.7076089 -0.0056699793    2.3468096    4.9010007 -0.0056627175 
  461000    1.7471909 -0.0081739242    2.2898559      4.90088 0.0033247455 
  461200    1.7435456 -0.0061888985    2.2950942    4.9026386 0.0031444433 
  461400     1.722381 -0.0022452501    2.3235501    4.9033105 0.00095509124 
  461600    1.7223034 -0.0042429525    2.3251337    4.9027801 0.0060305637 
  461800    1.7124513 -0.006647737    2.3426114    4.9030839 -0.0037116414 
  462000    1.7065027 -0.0040243987    2.3490225    4.9032007 -0.0036800806 
  462200    1.7109953 -0.007028619    2.3454018    4.9033108 0.0082165829 
  462400     1.756195 -0.0058815107    2.2767127    4.9035271 0.0030266948 
  462600    1.7366354 -0.0073989203    2.3081863    4.9041616 -0.0049642605 
  462800    1.6978727 -0.0069279292    2.3655381    4.9038756 0.0082569631 
  463000    1.7110145 -0.007394928    2.3463298    4.9039012 -0.0032057559 
  463200    1.7162197 -0.0062291015    2.3378338     4.904374 -0.0016006371 
  463400    1.7124041 -0.0044917144    2.3432582    4.9058159 0.0084297574 
  463600    1.7216909 -0.0069896295    2.3318939    4.9058755 -0.0020930983 
  463800    1.6996592 -0.0076052945    2.3657884    4.9061267 0.0040530019 
  464000    1.7150598 -0.0098171511    2.3451885    4.9064019 0.0041421476 
  464200    1.7106682 -0.010970458    2.3532232    4.9066998 -0.0036267912 
  464400    1.7008982 -0.011480743    2.3687438    4.9070641 -0.0023914419 
  464600    1.6936694 -0.0073147008    2.3761673     4.907817 0.0047897693 
  464800    1.6838837 -0.0086380799    2.3929001    4.9085568 0.00080181356 
  465000    1.7187486 -0.011129666    2.3425558    4.9079865 0.00057974019 
  465200    1.6639876 -0.0093856236    2.4237663    4.9088494 0.0028517613 
  465400    1.7009828 -0.0096579696    2.3681678    4.9084377 0.00066271304 
  465600    1.7089746 -0.0068959809    2.3539959    4.9090082 -0.0038411117 
  465800    1.7243389 -0.0075486937    2.3319619     4.909354 -0.0031497713 
  466000    1.7120708 -0.0062953616    2.3491377    4.9093922 0.0038468923 
  466200    1.6966232 -0.0071049104    2.3734221    4.9097095 0.0049380422 
  466400    1.6866364 -0.0083086711    2.3903077    4.9104203 -0.0024310769 
  466600    1.7052568 -0.0082560275    2.3622298    4.9103087 -9.6994107e-05 
  466800    1.6978521 -0.0084580709    2.3735208    4.9102974 0.00070674866 
  467000    1.7357087 -0.0091559169     2.317462    4.9102912  0.003809006 
  467200    1.7261686 -0.0090392841    2.3320502    4.9106945 -0.0021277228 
  467400    1.6708779 -0.010018643    2.4163858     4.911165 -0.0049861443 
  467600    1.7225662 -0.0062010369     2.335045    4.9111273   0.01191974 
  467800    1.7138545 -0.0077569134    2.3496886    4.9111553 0.0075157217 
  468000    1.7125729 -0.0075967224    2.3521755    4.9118813 -0.0049877349 
  468200      1.69578 -0.0072006798    2.3772973    4.9122249 0.0061370112 
  468400    1.7174793 -0.0086269483    2.3458466    4.9118772 0.0013691297 
  468600    1.7208474 -0.0091047906    2.3413119    4.9119138 -0.00048423132 
  468800    1.6904168 -0.0083129337    2.3867194    4.9124949 0.0019466969 
  469000     1.729865 -0.0082397132    2.3276188     4.912604 -0.006728117 
  469200    1.7566921 -0.0078360437    2.2872302    4.9128353 0.0022181686 
  469400    1.7379516 -0.0063929826    2.3144248    4.9133793 0.0022809441 
  469600    1.7143848 -0.0068429116    2.3505689    4.9137446 0.0010652086 
  469800    1.7029636 -0.0064398012     2.367416    4.9138734 0.0038924028 
  470000    1.6998926 -0.0055974561    2.3723208    4.9150169 -0.002608565 
  470200    1.7177294 -0.008346754    2.3475348    4.9142205 0.0050134884 
  470400    1.6833779 -0.0084614658    2.3997755    4.9148506  0.003665325 
  470600    1.6922672 -0.0080581543    2.3865909     4.915395 -0.0048551817 
  470800    1.7239879 -0.011398075    2.3421315    4.9151479 -0.001638778 
  471000    1.7103163 -0.010406157    2.3620158    4.9155293 -0.0038211727 
  471200    1.7361388 -0.0082053155    2.3211261    4.9155506 0.0035901941 
  471400    1.7409289 -0.0077998168    2.3139638    4.9159748 0.0074705159 
  471600    1.7207132 -0.010421853     2.347118    4.9162017 -0.0003274652 
  471800    1.7439969 -0.011509378    2.3136355     4.916536 0.0018485429 
  472000      1.69166 -0.013456784    2.3936562    4.9161516 0.0023499129 
  472200    1.7520506 -0.013176848    2.3029888     4.916295 0.0031788702 
  472400    1.6875606 -0.012258809    2.3997696    4.9173176 0.0019958704 
  472600    1.7239275  -0.01092742    2.3440418    4.9174385 -0.0014448113 
  472800    1.7210439 -0.010520393    2.3486674    4.9181483 -0.0024383198 
  473000    1.7297297 -0.013573975    2.3382041    4.9176521 0.0079110325 
  473200    1.7464079 -0.012002524    2.3120691    4.9180909 0.0040255218 
  473400    1.7439825 -0.0065811872    2.3103602    4.9181673 -0.0069723398 
  473600    1.7272738 -0.007767236    2.3371055    4.9186788 0.0089235955 
  473800    1.6696674 -0.0094839821    2.4253731    4.9188723 0.0035882502 
  474000    1.7382283 -0.010362214    2.3236216    4.9190216 -0.0027102428 
  474200    1.7262918 -0.010770006    2.3422888    4.9193871 0.0040138311 
  474400    1.7239962 -0.0057067702    2.3406355    4.9193558  0.008631674 
  474600     1.754348 -0.0097784463     2.298835    4.9189836 -0.0019411812 
  474800    1.7151447 -0.005243517     2.353778    4.9196923 0.0017271579 
  475000    1.7043395 -0.0071214343    2.3718521    4.9196905 -0.00014986296 
  475200    1.6960972 -0.0063106076    2.3837697     4.920063 0.0035328473 
  475400    1.7163413 -0.0043167625    2.3520112    4.9206461 0.0014597747 
  475600    1.6873527 -0.0066332367    2.3975689    4.9204309 0.0034722601 
  475800    1.7194001 -0.0081342983     2.351077    4.9204797 -0.0045985999 
  476000    1.7083948 -0.0054779392     2.365754    4.9213152 -0.0013275189 
  476200    1.7060977 -0.0063342114    2.3699119    4.9211733 0.0034111195 
  476400     1.682705 -0.0051018905    2.4040993    4.9215252 0.0041998569 
  476600    1.7239498 -0.0049693668    2.3422451    4.9216331 -0.0030856448 
  476800    1.7085039 -0.0066468487    2.3670656    4.9216214 0.0023663783 
  477000    1.7260442 -0.006107063     2.340531    4.9219211  0.005138152 
  477200    1.7029785 -0.0064168326    2.3752782     4.921781 0.00058009094 
  477400    1.6861595 -0.0074091503    2.4018952    4.9221924 0.0044742576 
  477600    1.7248249 -0.0044684136     2.341353    4.9225538 0.0029151557 
  477800    1.7137204 -0.0052765223    2.3593245    4.9230706 -0.0005349779 
  478000    1.7356613 -0.0049913243    2.3260753    4.9229981 -0.00039886779 
  478200    1.7387077 -0.0061253881    2.3235411    4.9238967 0.0068150192 
  478400    1.7367779 -0.0043799711    2.3244828    4.9236908 -0.0023154302 
  478600    1.7350557 -0.0040308886    2.3276289    4.9246043 1.2496596e-05 
  478800     1.689423 -0.0071867433    2.3991596    4.9245715 -0.0033665865 
  479000    1.7577747 -0.0077542334    2.2978299    4.9251397 0.0012562498 
  479200    1.7417437 -0.0082639918    2.3221185    4.9248867 0.0032801893 
  479400    1.7219597 -0.0082993875    2.3521255    4.9252003 -0.0018462978 
  479600    1.7348197 -0.0047220357    2.3292809    4.9252112 0.0033717576 
  479800    1.7001834 -0.0065969849    2.3838154    4.9259479 0.0030882967 
  480000     1.693202 -0.0045459513    2.3922973    4.9260151 -0.0098488578 
  480200    1.7242178 -0.0055524732    2.3466741    4.9258808 0.0084385141 
  480400    1.6929061 -0.0082287541    2.3966678    4.9262592 -0.0016479362 
  480600    1.7349232 -0.0066183376    2.3317889    4.9259783  0.002587303 
  480800    1.7242851 -0.0051613868    2.3466392    4.9263378 0.0029014904 
  481000    1.7033421 -0.0092453802     2.382601    4.9268203 0.0034978283 
  481200    1.7120895 -0.010161125    2.3701187    4.9265354 -0.00072501706 
  481400    1.7131472 -0.011703648    2.3700667    4.9265264 0.0065121316 
  481600    1.6981557 -0.0090719065    2.3896157    4.9262335 -0.001866186 
  481800    1.7208908 -0.0073665564    2.3540135    4.9264187 0.0030726228 
  482000    1.7518717 -0.0083880467    2.3088827    4.9267096  0.012249044 
  482200    1.7066334 -0.0077085739    2.3764185    4.9271085 -0.001515007 
  482400    1.7029032 -0.0057104197    2.3807035    4.9277998 -0.0038862913 
  482600    1.7175607 -0.0072893416    2.3599559    4.9274461 -0.0016807254 
  482800    1.6952095 -0.0068767081    2.3935324    4.9279289 0.0020263002 
  483000    1.7678995 -0.0081304051     2.285578    4.9276897  0.005087056 
  483200    1.6904684 -0.0083601804    2.4026914     4.928497 0.00068138473 
  483400    1.7301137  -0.00842855    2.3438446    4.9290138 -0.0029243114 
  483600    1.6947352 -0.0058337769    2.3941361    4.9288645 -0.0020558958 
  483800    1.6947552 -0.0054768752    2.3941495    4.9292647 0.00015855502 
  484000    1.7802806 -0.008030366    2.2680874    4.9288595 0.0099190851 
  484200    1.6943026 -0.0093871671    2.3990843    4.9296107 -0.0075167615 
  484400    1.7090181 -0.0075641425    2.3753633    4.9297726 -0.0017436469 
  484600    1.7088028 -0.010525206    2.3785161    4.9296417 -0.00055432197 
  484800    1.7388765 -0.011068281     2.334328    4.9299937 -0.00024723581 
  485000    1.7227516 -0.0088238582    2.3562193    4.9299567 0.0060563702 
  485200    1.6891089 -0.0074157903    2.4059731    4.9306851 0.0025877323 
  485400    1.7194626 -0.0072601847    2.3600388    4.9304093 -0.0055109835 
  485600    1.7214815 -0.0097558592    2.3600645     4.930966 0.0096400904 
  485800    1.7091285 -0.0095909572    2.3788518    4.9313998 -0.00032385119 
  486000    1.7127529 -0.0075878323    2.3713882    4.9313727 0.00077473267 
  486200    1.6893854 -0.0061556657    2.4055193    4.9319059 -0.0041151494 
  486400    1.7364846 -0.0095700431    2.3382959    4.9318742 -0.00018253106 
  486600    1.7250206 -0.0097856831    2.3552021    4.9313792 -0.0011612008 
  486800    1.7499516 -0.010501853    2.3182812    4.9311159 0.0028800036 
  487000     1.731211 -0.0080402385    2.3442891    4.9314916 0.0038350245 
  487200    1.7293644 -0.0049871763    2.3442284    4.9317157 0.0039541354 
  487400    1.6872433 -0.0088300971    2.4116578    4.9321588 -0.0028726662 
  487600    1.6944898 -0.0068575729    2.3990112    4.9323479 -0.00089844759 
  487800    1.7235957 -0.0056341351    2.3540313    4.9322238 0.0062903106 
  488000    1.7017265 -0.006487802    2.3882614    4.9328163 -0.001357087 
  488200    1.6940528 -0.0071547845    2.4006817     4.933066 0.0038557025 
  488400     1.727484 -0.0050801867    2.3488503    4.9334256 0.0081476452 
  488600    1.7097349 -0.0087115376    2.3795526    4.9338891 -0.0040100137 
  488800    1.7453819 -0.0077726195    2.3251272    4.9338407 0.0028588833 
  489000    1.7272953 -0.0065577818    2.3513011     4.934116 0.0028197715 
  489200    1.7274381 -0.0075096691    2.3526353    4.9347124 -0.001360142 
  489400    1.7091027 -0.0048206923    2.3775065    4.9347861  0.004014594 
  489600    1.6830992 -0.0057869184    2.4176803    4.9350121 -0.0071599553 
  489800    1.7320296 -0.0063565638    2.3447932    4.9349065 -0.0031573347 
  490000    1.6778526 -0.0062639145     2.426664    4.9356537 0.0029676924 
  490200    1.7143506 -0.0081085479    2.3736239    4.9354827 4.0769129e-06 
  490400    1.7039023 -0.0036440721    2.3850946     4.935755 0.0041216794 
  490600    1.7373133 -0.0046771267    2.3358264    4.9355398 0.00019734435 
  490800    1.7055199 -0.0015915891     2.380794    4.9359318 -0.009320362 
  491000    1.7214852 -0.0064669488      2.36194    4.9361358 0.0019430532 
  491200    1.7060709 -0.0038903387    2.3834873    4.9371523 0.00065809544 
  491400    1.7363395 -0.005328232    2.3386792    4.9362818   0.01062345 
  491600    1.7383448 -0.0077063566    2.3381385     4.936369 -0.0058932814 
  491800    1.7459746 -0.0073613575    2.3267577    4.9367711 0.00088332326 
  492000    1.6962386 -0.0068760817    2.4017624    4.9377022 -0.0035893033 
  492200    1.7041319 -0.010317055    2.3933582    4.9376898 0.0037260606 
  492400    1.7268502 -0.0081591173    2.3571591    4.9377054 -0.0016684596 
  492600    1.7182332 -0.0090160316    2.3719437    4.9387154 -0.0021321171 
  492800    1.7187259 -0.010329822    2.3728065    4.9390031 0.0091752873 
  493000    1.7222445 -0.011006181    2.3685756    4.9393705 0.0018916239 
  493200    1.7330428 -0.0039063343    2.3461925    4.9402749 -0.0002232848 
  493400    1.7162557 -0.0042836419    2.3722103      4.94075 0.0030381471 
  493600    1.7280422 -0.0058847674     2.356053    4.9406605 -0.0022651107 
  493800    1.7249225 -0.006516364    2.3612824    4.9405817 -0.0010741863 
  494000    1.7157988 -0.0084186461    2.3770744     4.940794  0.001932602 
  494200    1.7417474 -0.010332177    2.3403915     4.941097  0.001171605 
  494400    1.6975469 -0.012324319    2.4086459    4.9410988 -0.0033962096 
  494600    1.7397925 -0.0096187058     2.342589    4.9410775 0.0062082573 
  494800    1.7104624 -0.0087734477    2.3866668     4.942032 -0.0003372782 
  495000    1.7467612 -0.005993917    2.3293888    4.9419487 -0.00039764074 
  495200    1.7448832 -0.0061478036    2.3322081    4.9417988 -0.0032977779 
  495400    1.7488603 -0.007018925    2.3273745    4.9420562 -0.00050729063 
  495600    1.6900231 -0.0074114391    2.4163291    4.9424159 0.0055287099 
  495800    1.7065772 -0.0070404699    2.3913232    4.9425971 -0.0010007951 
  496000    1.7262106 -0.0076062329    2.3629278    4.9430681 0.0031357507 
  496200    1.7209933 -0.011241357    2.3753713    4.9440553 -0.0053434772 
  496400    1.7487746 -0.011988254    2.3342601    4.9438439 0.0073626862 
  496600     1.699366 -0.010479696     2.407696    4.9447204 -0.0039988664 
  496800    1.7253507 -0.0097506437     2.368096    4.9448028 -0.0025958467 
  497000     1.733992 -0.010862651    2.3559367    4.9444856 0.0047722646 
  497200    1.7414262 -0.012177397    2.3466345    4.9450134 0.0076905503 
  497400    1.6990956 -0.010884806    2.4091677    4.9453817 0.0012475803 
  497600    1.7159664 -0.010567017       2.3837    4.9455226 0.0020079394 
  497800    1.7003123 -0.0091562488    2.4057543    4.9455208 -0.0027996567 
  498000    1.6835431 -0.0092032747    2.4310772    4.9456581 -0.0007347196 
  498200    1.7437816 -0.0081896939    2.3400226    4.9459201 0.0038309154 
  498400    1.6999481 -0.0068706651    2.4045265    4.9460325 -0.00086043345 
  498600    1.7474354 -0.0097584836    2.3361494    4.9459554 0.0063688394 
  498800    1.7252144 -0.0095750561    2.3702572    4.9469354 -0.00073878879 
  499000     1.714245 -0.010504113    2.3878093    4.9471143 -0.0028108015 
  499200    1.7207968 -0.0092754755     2.377317    4.9476723 -0.0015491616 
  499400    1.7341786 -0.011300344    2.3598787    4.9482698 -0.0043551613 
  499600    1.7542375 -0.011133438    2.3297336    4.9483616 0.00087359248 
  499800    1.7294165 -0.010249756    2.3661472      4.94845 -0.0016054973 
  500000    1.7478252 -0.0092993144    2.3380656    4.9489153 0.0050455354 
  500200    1.7402514 -0.010619923    2.3509811    4.9491563 0.00051226727 
  500299    1.7349478 -0.0055370468    2.3539317    4.9492391 7.1187496e-06 
Loop time of 163.394 on 1 procs for 500000 steps with 1650 atoms

Performance: 264391.555 tau/day, 3060.087 timesteps/s
99.2% CPU use with 1 MPI tasks x 1 OpenMP threads

MPI task timing breakdown:
Section |  min time  |  avg time  |  max time  |%varavg| %total
---------------------------------------------------------------
Pair    | 26.658     | 26.658     | 26.658     |   0.0 | 16.32
Bond    | 85.47      | 85.47      | 85.47      |   0.0 | 52.31
Neigh   | 25.304     | 25.304     | 25.304     |   0.0 | 15.49
Comm    | 4.0894     | 4.0894     | 4.0894     |   0.0 |  2.50
Output  | 3.2256     | 3.2256     | 3.2256     |   0.0 |  1.97
Modify  | 15.751     | 15.751     | 15.751     |   0.0 |  9.64
Other   |            | 2.896      |            |       |  1.77

Nlocal:    1650 ave 1650 max 1650 min
Histogram: 1 0 0 0 0 0 0 0 0 0
Nghost:    745 ave 745 max 745 min
Histogram: 1 0 0 0 0 0 0 0 0 0
Neighs:    1427 ave 1427 max 1427 min
Histogram: 1 0 0 0 0 0 0 0 0 0

Total # of neighbors = 1427
Ave neighs/atom = 0.864848
Ave special neighs/atom = 5.63636
Neighbor list builds = 30484
Dangerous builds = 0


# ----------------- Run Section -----------------

# The lines above define the system you want to simulate.
# What you do next is up to you.
# Typically a user would minimize and equilibrate
# the system using commands similar to the following:
#  ----   examples   ----
#
#  -- minimize --
# minimize 1.0e-5 1.0e-7 1000 10000
# (Note: Some fixes, for example "shake", interfere with the minimize command,
#        You can use the "unfix" command to disable them before minimization.)
#  -- declare time step for normal MD --
# timestep 1.0
#  -- run at constant pressure (Nose-Hoover)--
# fix   fxnpt all npt temp 300.0 300.0 100.0 iso 1.0 1.0 1000.0 drag 1.0
#  -- ALTERNATELY, run at constant volume (Nose-Hoover) --
# fix   fxnvt all nvt temp 300.0 300.0 500.0 tchain 1
#  -- ALTERNATELY, run at constant volume using Langevin dynamics. --
#  -- (This is good for sparse CG polymers in implicit solvent.)   --
# fix fxLAN all langevin 300.0 300.0 5000 48279
# fix fxNVE all nve  #(<--needed by fix langevin)
#  -- Now, finally run the simulation --
# run   50000
#  ---- (end of examples) ----

Total wall time: 0:02:44
