LAMMPS (7 Aug 2019)
OMP_NUM_THREADS environment is not set. Defaulting to 1 thread. (src/comm.cpp:93)
  using 1 OpenMP thread(s) per MPI task


# ----------------- Init Section -----------------

include "system.in.init"
        units lj
        atom_style angle
        pair_style hybrid lj/expand/twopiece 2.5 lj/twopiece 2.5 soft/shift 0.3 zero 1 morse 2.5
        bond_style hybrid harmonic
        angle_style hybrid harmonic
        special_bonds lj 0.0 0.0 0.0


# ----------------- Atom Definition Section -----------------

read_data "system.data"
  orthogonal box = (-20 -20 -20) to (20 20 20)
  1 by 1 by 1 MPI processor grid
  reading atoms ...
  2 atoms
  0 = max # of 1-2 neighbors
  0 = max # of 1-3 neighbors
  0 = max # of 1-4 neighbors
  1 = max # of special neighbors
  special bonds CPU = 3.9e-05 secs
  read_data CPU = 0.00096 secs

# ----------------- Settings Section -----------------

include "system.in.settings"
       pair_coeff 2 2 lj/expand/twopiece 0.5 1 0.5 0.
        pair_coeff 3 3 lj/twopiece 5.0 1 0.5
        pair_coeff 4 4 lj/twopiece 1.0 1 0.5
        pair_coeff 3 4 lj/twopiece 1.0 1 0.5
        pair_coeff 2 3 lj/expand/twopiece 0.5 1 0.5 0.
        pair_coeff 2 4 lj/expand/twopiece 0.5 1 0.5 0.

        pair_coeff 5 5 soft/shift 1.5 0.2
pair_coeff 2 5 zero
pair_coeff 1 5 zero
pair_coeff 3 5 zero
pair_coeff 4 5 zero

        pair_coeff 8 8 lj/expand/twopiece 0.5 1 0.5 0.
pair_coeff 5 8 lj/expand/twopiece 0.5 1 0.5 0.
pair_coeff 2 8 zero
pair_coeff 1 8 morse 100 4 0.5
pair_coeff 3 8 zero
pair_coeff 4 8 zero
pair_coeff 6 8 zero
pair_coeff 7 8 zero

        pair_coeff 6 6 soft/shift 1.5 0.2
pair_coeff 2 6 zero
pair_coeff 1 6 zero
pair_coeff 3 6 zero
pair_coeff 4 6 zero
        pair_coeff 6 7 soft/shift 1.5 0.2

        pair_coeff 7 7 soft/shift 1.5 0.2
pair_coeff 2 7 zero
pair_coeff 1 7 zero
pair_coeff 3 7 zero
pair_coeff 4 7 zero

        pair_coeff 1 1 lj/expand/twopiece 0.5 1 0.8 0.
        pair_coeff 1 2 lj/expand/twopiece 0.5 1 0.8 0.
        pair_coeff 1 3 lj/expand/twopiece 0.5 1 0.8 0.
        pair_coeff 1 4 lj/expand/twopiece 0.5 1 0.8 0.


        bond_coeff 1 harmonic 1000 0.4
        bond_coeff 2 harmonic 1000 0.4
        bond_coeff 3 harmonic 1000 0.15

        angle_coeff 1 harmonic 20 180
        angle_coeff 2 harmonic 20 180
        angle_coeff 3 harmonic 20 180
        angle_coeff 4 harmonic 20 180


# ----------------- Run Section -----------------

include "system.in.run"
  dump dxyz all atom 1000 poly.lammpstrj
  group atom1 id 1
1 atoms in group atom1
  group atom2 id 2
1 atoms in group atom2
  compute pair_data all pair/local dist eng

  fix ffreeze all setforce 0 0 0
  dump 1 all local 10 pair_energy.data index c_pair_data[1] c_pair_data[2]

  thermo 200
  timestep 0.001
  run   1000
Neighbor list info ...
  update every 1 steps, delay 10 steps, check yes
  max neighbors/atom: 2000, page size: 100000
  master list distance cutoff = 2.8
  ghost atom cutoff = 2.8
  binsize = 1.4, bins = 29 29 29
  7 neighbor lists, perpetual/occasional/extra = 6 1 0
  (1) pair lj/expand/twopiece, perpetual, skip from (7)
      attributes: half, newton on
      pair build: skip
      stencil: none
      bin: none
  (2) pair lj/twopiece, perpetual, skip from (7)
      attributes: half, newton on
      pair build: skip
      stencil: none
      bin: none
  (3) pair soft/shift, perpetual, skip from (7)
      attributes: half, newton on
      pair build: skip
      stencil: none
      bin: none
  (4) pair zero, perpetual, skip from (7)
      attributes: half, newton on
      pair build: skip
      stencil: none
      bin: none
  (5) pair morse, perpetual, skip from (7)
      attributes: half, newton on
      pair build: skip
      stencil: none
      bin: none
  (6) compute pair/local, occasional, copy from (7)
      attributes: half, newton on
      pair build: copy
      stencil: none
      bin: none
  (7) neighbor class addition, perpetual
      attributes: half, newton on
      pair build: half/bin/newton
      stencil: half/bin/3d/newton
      bin: standard
Per MPI rank memory allocation (min/avg/max) = 8.714 | 8.714 | 8.714 Mbytes
Step Temp E_pair E_mol TotEng Press 
       0            0 -0.001821483            0 -0.001821483 -1.1382195e-07 
     200            0 -0.001821483            0 -0.001821483 -1.1382195e-07 
     400            0 -0.001821483            0 -0.001821483 -1.1382195e-07 
     600            0 -0.001821483            0 -0.001821483 -1.1382195e-07 
     800            0 -0.001821483            0 -0.001821483 -1.1382195e-07 
    1000            0 -0.001821483            0 -0.001821483 -1.1382195e-07 
Loop time of 0.028453 on 1 procs for 1000 steps with 2 atoms

Performance: 3036586.651 tau/day, 35145.679 timesteps/s
109.8% CPU use with 1 MPI tasks x 1 OpenMP threads

MPI task timing breakdown:
Section |  min time  |  avg time  |  max time  |%varavg| %total
---------------------------------------------------------------
Pair    | 0.00291    | 0.00291    | 0.00291    |   0.0 | 10.23
Bond    | 0.001449   | 0.001449   | 0.001449   |   0.0 |  5.09
Neigh   | 0          | 0          | 0          |   0.0 |  0.00
Comm    | 0.002967   | 0.002967   | 0.002967   |   0.0 | 10.43
Output  | 0.007436   | 0.007436   | 0.007436   |   0.0 | 26.13
Modify  | 0.003729   | 0.003729   | 0.003729   |   0.0 | 13.11
Other   |            | 0.009962   |            |       | 35.01

Nlocal:    2 ave 2 max 2 min
Histogram: 1 0 0 0 0 0 0 0 0 0
Nghost:    0 ave 0 max 0 min
Histogram: 1 0 0 0 0 0 0 0 0 0
Neighs:    0 ave 0 max 0 min
Histogram: 1 0 0 0 0 0 0 0 0 0

Total # of neighbors = 0
Ave neighs/atom = 0
Ave special neighs/atom = 0
Neighbor list builds = 0
Dangerous builds = 0
  variable a loop 210
  label loop
  displace_atoms atom2 move 0 -0.02 0
  run   1000
Neighbor list info ...
  update every 1 steps, delay 10 steps, check yes
  max neighbors/atom: 2000, page size: 100000
  master list distance cutoff = 2.8
  ghost atom cutoff = 2.8
  binsize = 1.4, bins = 29 29 29
  7 neighbor lists, perpetual/occasional/extra = 6 1 0
  (1) pair lj/expand/twopiece, perpetual, skip from (7)
      attributes: half, newton on
      pair build: skip
      stencil: none
      bin: none
  (2) pair lj/twopiece, perpetual, skip from (7)
      attributes: half, newton on
      pair build: skip
      stencil: none
      bin: none
  (3) pair soft/shift, perpetual, skip from (7)
      attributes: half, newton on
      pair build: skip
      stencil: none
      bin: none
  (4) pair zero, perpetual, skip from (7)
      attributes: half, newton on
      pair build: skip
      stencil: none
      bin: none
  (5) pair morse, perpetual, skip from (7)
      attributes: half, newton on
      pair build: skip
      stencil: none
      bin: none
  (6) compute pair/local, occasional, copy from (7)
      attributes: half, newton on
      pair build: copy
      stencil: none
      bin: none
  (7) neighbor class addition, perpetual
      attributes: half, newton on
      pair build: half/bin/newton
      stencil: half/bin/3d/newton
      bin: standard
Per MPI rank memory allocation (min/avg/max) = 9.833 | 9.833 | 9.833 Mbytes
Step Temp E_pair E_mol TotEng Press 
    1000            0 -0.0019291065            0 -0.0019291065 -1.2054589e-07 
    1200            0 -0.0019291065            0 -0.0019291065 -1.2054589e-07 
    1400            0 -0.0019291065            0 -0.0019291065 -1.2054589e-07 
    1600            0 -0.0019291065            0 -0.0019291065 -1.2054589e-07 
    1800            0 -0.0019291065            0 -0.0019291065 -1.2054589e-07 
    2000            0 -0.0019291065            0 -0.0019291065 -1.2054589e-07 
Loop time of 0.018217 on 1 procs for 1000 steps with 2 atoms

Performance: 4742822.637 tau/day, 54893.781 timesteps/s
85.8% CPU use with 1 MPI tasks x 1 OpenMP threads

MPI task timing breakdown:
Section |  min time  |  avg time  |  max time  |%varavg| %total
---------------------------------------------------------------
Pair    | 0.00208    | 0.00208    | 0.00208    |   0.0 | 11.42
Bond    | 0.001388   | 0.001388   | 0.001388   |   0.0 |  7.62
Neigh   | 0          | 0          | 0          |   0.0 |  0.00
Comm    | 0.002675   | 0.002675   | 0.002675   |   0.0 | 14.68
Output  | 0.003356   | 0.003356   | 0.003356   |   0.0 | 18.42
Modify  | 0.002661   | 0.002661   | 0.002661   |   0.0 | 14.61
Other   |            | 0.006057   |            |       | 33.25

Nlocal:    2 ave 2 max 2 min
Histogram: 1 0 0 0 0 0 0 0 0 0
Nghost:    0 ave 0 max 0 min
Histogram: 1 0 0 0 0 0 0 0 0 0
Neighs:    0 ave 0 max 0 min
Histogram: 1 0 0 0 0 0 0 0 0 0

Total # of neighbors = 0
Ave neighs/atom = 0
Ave special neighs/atom = 0
Neighbor list builds = 0
Dangerous builds = 0
  next a
  jump SELF loop
  displace_atoms atom2 move 0 -0.02 0
  run   1000
Neighbor list info ...
  update every 1 steps, delay 10 steps, check yes
  max neighbors/atom: 2000, page size: 100000
  master list distance cutoff = 2.8
  ghost atom cutoff = 2.8
  binsize = 1.4, bins = 29 29 29
  7 neighbor lists, perpetual/occasional/extra = 6 1 0
  (1) pair lj/expand/twopiece, perpetual, skip from (7)
      attributes: half, newton on
      pair build: skip
      stencil: none
      bin: none
  (2) pair lj/twopiece, perpetual, skip from (7)
      attributes: half, newton on
      pair build: skip
      stencil: none
      bin: none
  (3) pair soft/shift, perpetual, skip from (7)
      attributes: half, newton on
      pair build: skip
      stencil: none
      bin: none
  (4) pair zero, perpetual, skip from (7)
      attributes: half, newton on
      pair build: skip
      stencil: none
      bin: none
  (5) pair morse, perpetual, skip from (7)
      attributes: half, newton on
      pair build: skip
      stencil: none
      bin: none
  (6) compute pair/local, occasional, copy from (7)
      attributes: half, newton on
      pair build: copy
      stencil: none
      bin: none
  (7) neighbor class addition, perpetual
      attributes: half, newton on
      pair build: half/bin/newton
      stencil: half/bin/3d/newton
      bin: standard
Per MPI rank memory allocation (min/avg/max) = 9.833 | 9.833 | 9.833 Mbytes
Step Temp E_pair E_mol TotEng Press 
    2000            0 -0.0020442212            0 -0.0020442212 -1.277377e-07 
    2200            0 -0.0020442212            0 -0.0020442212 -1.277377e-07 
    2400            0 -0.0020442212            0 -0.0020442212 -1.277377e-07 
    2600            0 -0.0020442212            0 -0.0020442212 -1.277377e-07 
    2800            0 -0.0020442212            0 -0.0020442212 -1.277377e-07 
    3000            0 -0.0020442212            0 -0.0020442212 -1.277377e-07 
Loop time of 0.017051 on 1 procs for 1000 steps with 2 atoms

Performance: 5067151.495 tau/day, 58647.587 timesteps/s
0.0% CPU use with 1 MPI tasks x 1 OpenMP threads

MPI task timing breakdown:
Section |  min time  |  avg time  |  max time  |%varavg| %total
---------------------------------------------------------------
Pair    | 0.00172    | 0.00172    | 0.00172    |   0.0 | 10.09
Bond    | 0.001644   | 0.001644   | 0.001644   |   0.0 |  9.64
Neigh   | 0          | 0          | 0          |   0.0 |  0.00
Comm    | 0.002372   | 0.002372   | 0.002372   |   0.0 | 13.91
Output  | 0.003278   | 0.003278   | 0.003278   |   0.0 | 19.22
Modify  | 0.002498   | 0.002498   | 0.002498   |   0.0 | 14.65
Other   |            | 0.005539   |            |       | 32.48

Nlocal:    2 ave 2 max 2 min
Histogram: 1 0 0 0 0 0 0 0 0 0
Nghost:    0 ave 0 max 0 min
Histogram: 1 0 0 0 0 0 0 0 0 0
Neighs:    0 ave 0 max 0 min
Histogram: 1 0 0 0 0 0 0 0 0 0

Total # of neighbors = 0
Ave neighs/atom = 0
Ave special neighs/atom = 0
Neighbor list builds = 0
Dangerous builds = 0
  next a
  jump SELF loop
  displace_atoms atom2 move 0 -0.02 0
  run   1000
Neighbor list info ...
  update every 1 steps, delay 10 steps, check yes
  max neighbors/atom: 2000, page size: 100000
  master list distance cutoff = 2.8
  ghost atom cutoff = 2.8
  binsize = 1.4, bins = 29 29 29
  7 neighbor lists, perpetual/occasional/extra = 6 1 0
  (1) pair lj/expand/twopiece, perpetual, skip from (7)
      attributes: half, newton on
      pair build: skip
      stencil: none
      bin: none
  (2) pair lj/twopiece, perpetual, skip from (7)
      attributes: half, newton on
      pair build: skip
      stencil: none
      bin: none
  (3) pair soft/shift, perpetual, skip from (7)
      attributes: half, newton on
      pair build: skip
      stencil: none
      bin: none
  (4) pair zero, perpetual, skip from (7)
      attributes: half, newton on
      pair build: skip
      stencil: none
      bin: none
  (5) pair morse, perpetual, skip from (7)
      attributes: half, newton on
      pair build: skip
      stencil: none
      bin: none
  (6) compute pair/local, occasional, copy from (7)
      attributes: half, newton on
      pair build: copy
      stencil: none
      bin: none
  (7) neighbor class addition, perpetual
      attributes: half, newton on
      pair build: half/bin/newton
      stencil: half/bin/3d/newton
      bin: standard
Per MPI rank memory allocation (min/avg/max) = 9.833 | 9.833 | 9.833 Mbytes
Step Temp E_pair E_mol TotEng Press 
    3000            0 -0.0021674289            0 -0.0021674289 -1.3543493e-07 
    3200            0 -0.0021674289            0 -0.0021674289 -1.3543493e-07 
    3400            0 -0.0021674289            0 -0.0021674289 -1.3543493e-07 
    3600            0 -0.0021674289            0 -0.0021674289 -1.3543493e-07 
    3800            0 -0.0021674289            0 -0.0021674289 -1.3543493e-07 
    4000            0 -0.0021674289            0 -0.0021674289 -1.3543493e-07 
Loop time of 0.018554 on 1 procs for 1000 steps with 2 atoms

Performance: 4656677.803 tau/day, 53896.734 timesteps/s
84.2% CPU use with 1 MPI tasks x 1 OpenMP threads

MPI task timing breakdown:
Section |  min time  |  avg time  |  max time  |%varavg| %total
---------------------------------------------------------------
Pair    | 0.002362   | 0.002362   | 0.002362   |   0.0 | 12.73
Bond    | 0.001963   | 0.001963   | 0.001963   |   0.0 | 10.58
Neigh   | 0          | 0          | 0          |   0.0 |  0.00
Comm    | 0.002767   | 0.002767   | 0.002767   |   0.0 | 14.91
Output  | 0.004156   | 0.004156   | 0.004156   |   0.0 | 22.40
Modify  | 0.002742   | 0.002742   | 0.002742   |   0.0 | 14.78
Other   |            | 0.004564   |            |       | 24.60

Nlocal:    2 ave 2 max 2 min
Histogram: 1 0 0 0 0 0 0 0 0 0
Nghost:    0 ave 0 max 0 min
Histogram: 1 0 0 0 0 0 0 0 0 0
Neighs:    0 ave 0 max 0 min
Histogram: 1 0 0 0 0 0 0 0 0 0

Total # of neighbors = 0
Ave neighs/atom = 0
Ave special neighs/atom = 0
Neighbor list builds = 0
Dangerous builds = 0
  next a
  jump SELF loop
  displace_atoms atom2 move 0 -0.02 0
  run   1000
Neighbor list info ...
  update every 1 steps, delay 10 steps, check yes
  max neighbors/atom: 2000, page size: 100000
  master list distance cutoff = 2.8
  ghost atom cutoff = 2.8
  binsize = 1.4, bins = 29 29 29
  7 neighbor lists, perpetual/occasional/extra = 6 1 0
  (1) pair lj/expand/twopiece, perpetual, skip from (7)
      attributes: half, newton on
      pair build: skip
      stencil: none
      bin: none
  (2) pair lj/twopiece, perpetual, skip from (7)
      attributes: half, newton on
      pair build: skip
      stencil: none
      bin: none
  (3) pair soft/shift, perpetual, skip from (7)
      attributes: half, newton on
      pair build: skip
      stencil: none
      bin: none
  (4) pair zero, perpetual, skip from (7)
      attributes: half, newton on
      pair build: skip
      stencil: none
      bin: none
  (5) pair morse, perpetual, skip from (7)
      attributes: half, newton on
      pair build: skip
      stencil: none
      bin: none
  (6) compute pair/local, occasional, copy from (7)
      attributes: half, newton on
      pair build: copy
      stencil: none
      bin: none
  (7) neighbor class addition, perpetual
      attributes: half, newton on
      pair build: half/bin/newton
      stencil: half/bin/3d/newton
      bin: standard
Per MPI rank memory allocation (min/avg/max) = 9.833 | 9.833 | 9.833 Mbytes
Step Temp E_pair E_mol TotEng Press 
    4000            0 -0.0022993862            0 -0.0022993862 -1.4367858e-07 
    4200            0 -0.0022993862            0 -0.0022993862 -1.4367858e-07 
    4400            0 -0.0022993862            0 -0.0022993862 -1.4367858e-07 
    4600            0 -0.0022993862            0 -0.0022993862 -1.4367858e-07 
    4800            0 -0.0022993862            0 -0.0022993862 -1.4367858e-07 
    5000            0 -0.0022993862            0 -0.0022993862 -1.4367858e-07 
Loop time of 0.038542 on 1 procs for 1000 steps with 2 atoms

Performance: 2241710.342 tau/day, 25945.722 timesteps/s
40.5% CPU use with 1 MPI tasks x 1 OpenMP threads

MPI task timing breakdown:
Section |  min time  |  avg time  |  max time  |%varavg| %total
---------------------------------------------------------------
Pair    | 0.002891   | 0.002891   | 0.002891   |   0.0 |  7.50
Bond    | 0.00213    | 0.00213    | 0.00213    |   0.0 |  5.53
Neigh   | 0          | 0          | 0          |   0.0 |  0.00
Comm    | 0.004235   | 0.004235   | 0.004235   |   0.0 | 10.99
Output  | 0.0153     | 0.0153     | 0.0153     |   0.0 | 39.70
Modify  | 0.004498   | 0.004498   | 0.004498   |   0.0 | 11.67
Other   |            | 0.009488   |            |       | 24.62

Nlocal:    2 ave 2 max 2 min
Histogram: 1 0 0 0 0 0 0 0 0 0
Nghost:    0 ave 0 max 0 min
Histogram: 1 0 0 0 0 0 0 0 0 0
Neighs:    0 ave 0 max 0 min
Histogram: 1 0 0 0 0 0 0 0 0 0

Total # of neighbors = 0
Ave neighs/atom = 0
Ave special neighs/atom = 0
Neighbor list builds = 0
Dangerous builds = 0
  next a
  jump SELF loop
  displace_atoms atom2 move 0 -0.02 0
  run   1000
Neighbor list info ...
  update every 1 steps, delay 10 steps, check yes
  max neighbors/atom: 2000, page size: 100000
  master list distance cutoff = 2.8
  ghost atom cutoff = 2.8
  binsize = 1.4, bins = 29 29 29
  7 neighbor lists, perpetual/occasional/extra = 6 1 0
  (1) pair lj/expand/twopiece, perpetual, skip from (7)
      attributes: half, newton on
      pair build: skip
      stencil: none
      bin: none
  (2) pair lj/twopiece, perpetual, skip from (7)
      attributes: half, newton on
      pair build: skip
      stencil: none
      bin: none
  (3) pair soft/shift, perpetual, skip from (7)
      attributes: half, newton on
      pair build: skip
      stencil: none
      bin: none
  (4) pair zero, perpetual, skip from (7)
      attributes: half, newton on
      pair build: skip
      stencil: none
      bin: none
  (5) pair morse, perpetual, skip from (7)
      attributes: half, newton on
      pair build: skip
      stencil: none
      bin: none
  (6) compute pair/local, occasional, copy from (7)
      attributes: half, newton on
      pair build: copy
      stencil: none
      bin: none
  (7) neighbor class addition, perpetual
      attributes: half, newton on
      pair build: half/bin/newton
      stencil: half/bin/3d/newton
      bin: standard
Per MPI rank memory allocation (min/avg/max) = 9.833 | 9.833 | 9.833 Mbytes
Step Temp E_pair E_mol TotEng Press 
    5000            0 -0.0024408102            0 -0.0024408102 -1.5251338e-07 
    5200            0 -0.0024408102            0 -0.0024408102 -1.5251338e-07 
    5400            0 -0.0024408102            0 -0.0024408102 -1.5251338e-07 
    5600            0 -0.0024408102            0 -0.0024408102 -1.5251338e-07 
    5800            0 -0.0024408102            0 -0.0024408102 -1.5251338e-07 
    6000            0 -0.0024408102            0 -0.0024408102 -1.5251338e-07 
Loop time of 0.023865 on 1 procs for 1000 steps with 2 atoms

Performance: 3620364.551 tau/day, 41902.367 timesteps/s
0.0% CPU use with 1 MPI tasks x 1 OpenMP threads

MPI task timing breakdown:
Section |  min time  |  avg time  |  max time  |%varavg| %total
---------------------------------------------------------------
Pair    | 0.002236   | 0.002236   | 0.002236   |   0.0 |  9.37
Bond    | 0.001559   | 0.001559   | 0.001559   |   0.0 |  6.53
Neigh   | 0          | 0          | 0          |   0.0 |  0.00
Comm    | 0.003781   | 0.003781   | 0.003781   |   0.0 | 15.84
Output  | 0.007319   | 0.007319   | 0.007319   |   0.0 | 30.67
Modify  | 0.003471   | 0.003471   | 0.003471   |   0.0 | 14.54
Other   |            | 0.005499   |            |       | 23.04

Nlocal:    2 ave 2 max 2 min
Histogram: 1 0 0 0 0 0 0 0 0 0
Nghost:    0 ave 0 max 0 min
Histogram: 1 0 0 0 0 0 0 0 0 0
Neighs:    0 ave 0 max 0 min
Histogram: 1 0 0 0 0 0 0 0 0 0

Total # of neighbors = 0
Ave neighs/atom = 0
Ave special neighs/atom = 0
Neighbor list builds = 0
Dangerous builds = 0
  next a
  jump SELF loop
  displace_atoms atom2 move 0 -0.02 0
  run   1000
Neighbor list info ...
  update every 1 steps, delay 10 steps, check yes
  max neighbors/atom: 2000, page size: 100000
  master list distance cutoff = 2.8
  ghost atom cutoff = 2.8
  binsize = 1.4, bins = 29 29 29
  7 neighbor lists, perpetual/occasional/extra = 6 1 0
  (1) pair lj/expand/twopiece, perpetual, skip from (7)
      attributes: half, newton on
      pair build: skip
      stencil: none
      bin: none
  (2) pair lj/twopiece, perpetual, skip from (7)
      attributes: half, newton on
      pair build: skip
      stencil: none
      bin: none
  (3) pair soft/shift, perpetual, skip from (7)
      attributes: half, newton on
      pair build: skip
      stencil: none
      bin: none
  (4) pair zero, perpetual, skip from (7)
      attributes: half, newton on
      pair build: skip
      stencil: none
      bin: none
  (5) pair morse, perpetual, skip from (7)
      attributes: half, newton on
      pair build: skip
      stencil: none
      bin: none
  (6) compute pair/local, occasional, copy from (7)
      attributes: half, newton on
      pair build: copy
      stencil: none
      bin: none
  (7) neighbor class addition, perpetual
      attributes: half, newton on
      pair build: half/bin/newton
      stencil: half/bin/3d/newton
      bin: standard
Per MPI rank memory allocation (min/avg/max) = 9.833 | 9.833 | 9.833 Mbytes
Step Temp E_pair E_mol TotEng Press 
    6000            0 -0.002592485            0 -0.002592485 -1.6198828e-07 
    6200            0 -0.002592485            0 -0.002592485 -1.6198828e-07 
    6400            0 -0.002592485            0 -0.002592485 -1.6198828e-07 
    6600            0 -0.002592485            0 -0.002592485 -1.6198828e-07 
    6800            0 -0.002592485            0 -0.002592485 -1.6198828e-07 
    7000            0 -0.002592485            0 -0.002592485 -1.6198828e-07 
Loop time of 0.029234 on 1 procs for 1000 steps with 2 atoms

Performance: 2955462.816 tau/day, 34206.746 timesteps/s
0.0% CPU use with 1 MPI tasks x 1 OpenMP threads

MPI task timing breakdown:
Section |  min time  |  avg time  |  max time  |%varavg| %total
---------------------------------------------------------------
Pair    | 0.002869   | 0.002869   | 0.002869   |   0.0 |  9.81
Bond    | 0.001979   | 0.001979   | 0.001979   |   0.0 |  6.77
Neigh   | 0          | 0          | 0          |   0.0 |  0.00
Comm    | 0.003229   | 0.003229   | 0.003229   |   0.0 | 11.05
Output  | 0.011994   | 0.011994   | 0.011994   |   0.0 | 41.03
Modify  | 0.004208   | 0.004208   | 0.004208   |   0.0 | 14.39
Other   |            | 0.004955   |            |       | 16.95

Nlocal:    2 ave 2 max 2 min
Histogram: 1 0 0 0 0 0 0 0 0 0
Nghost:    0 ave 0 max 0 min
Histogram: 1 0 0 0 0 0 0 0 0 0
Neighs:    0 ave 0 max 0 min
Histogram: 1 0 0 0 0 0 0 0 0 0

Total # of neighbors = 0
Ave neighs/atom = 0
Ave special neighs/atom = 0
Neighbor list builds = 0
Dangerous builds = 0
  next a
  jump SELF loop
  displace_atoms atom2 move 0 -0.02 0
  run   1000
Neighbor list info ...
  update every 1 steps, delay 10 steps, check yes
  max neighbors/atom: 2000, page size: 100000
  master list distance cutoff = 2.8
  ghost atom cutoff = 2.8
  binsize = 1.4, bins = 29 29 29
  7 neighbor lists, perpetual/occasional/extra = 6 1 0
  (1) pair lj/expand/twopiece, perpetual, skip from (7)
      attributes: half, newton on
      pair build: skip
      stencil: none
      bin: none
  (2) pair lj/twopiece, perpetual, skip from (7)
      attributes: half, newton on
      pair build: skip
      stencil: none
      bin: none
  (3) pair soft/shift, perpetual, skip from (7)
      attributes: half, newton on
      pair build: skip
      stencil: none
      bin: none
  (4) pair zero, perpetual, skip from (7)
      attributes: half, newton on
      pair build: skip
      stencil: none
      bin: none
  (5) pair morse, perpetual, skip from (7)
      attributes: half, newton on
      pair build: skip
      stencil: none
      bin: none
  (6) compute pair/local, occasional, copy from (7)
      attributes: half, newton on
      pair build: copy
      stencil: none
      bin: none
  (7) neighbor class addition, perpetual
      attributes: half, newton on
      pair build: half/bin/newton
      stencil: half/bin/3d/newton
      bin: standard
Per MPI rank memory allocation (min/avg/max) = 9.833 | 9.833 | 9.833 Mbytes
Step Temp E_pair E_mol TotEng Press 
    7000            0 -0.0027552683            0 -0.0027552683 -1.7215679e-07 
    7200            0 -0.0027552683            0 -0.0027552683 -1.7215679e-07 
    7400            0 -0.0027552683            0 -0.0027552683 -1.7215679e-07 
    7600            0 -0.0027552683            0 -0.0027552683 -1.7215679e-07 
    7800            0 -0.0027552683            0 -0.0027552683 -1.7215679e-07 
    8000            0 -0.0027552683            0 -0.0027552683 -1.7215679e-07 
Loop time of 0.020648 on 1 procs for 1000 steps with 2 atoms

Performance: 4184424.641 tau/day, 48430.841 timesteps/s
0.0% CPU use with 1 MPI tasks x 1 OpenMP threads

MPI task timing breakdown:
Section |  min time  |  avg time  |  max time  |%varavg| %total
---------------------------------------------------------------
Pair    | 0.001932   | 0.001932   | 0.001932   |   0.0 |  9.36
Bond    | 0.001579   | 0.001579   | 0.001579   |   0.0 |  7.65
Neigh   | 0          | 0          | 0          |   0.0 |  0.00
Comm    | 0.003165   | 0.003165   | 0.003165   |   0.0 | 15.33
Output  | 0.004766   | 0.004766   | 0.004766   |   0.0 | 23.08
Modify  | 0.003161   | 0.003161   | 0.003161   |   0.0 | 15.31
Other   |            | 0.006045   |            |       | 29.28

Nlocal:    2 ave 2 max 2 min
Histogram: 1 0 0 0 0 0 0 0 0 0
Nghost:    0 ave 0 max 0 min
Histogram: 1 0 0 0 0 0 0 0 0 0
Neighs:    0 ave 0 max 0 min
Histogram: 1 0 0 0 0 0 0 0 0 0

Total # of neighbors = 0
Ave neighs/atom = 0
Ave special neighs/atom = 0
Neighbor list builds = 0
Dangerous builds = 0
  next a
  jump SELF loop
  displace_atoms atom2 move 0 -0.02 0
  run   1000
Neighbor list info ...
  update every 1 steps, delay 10 steps, check yes
  max neighbors/atom: 2000, page size: 100000
  master list distance cutoff = 2.8
  ghost atom cutoff = 2.8
  binsize = 1.4, bins = 29 29 29
  7 neighbor lists, perpetual/occasional/extra = 6 1 0
  (1) pair lj/expand/twopiece, perpetual, skip from (7)
      attributes: half, newton on
      pair build: skip
      stencil: none
      bin: none
  (2) pair lj/twopiece, perpetual, skip from (7)
      attributes: half, newton on
      pair build: skip
      stencil: none
      bin: none
  (3) pair soft/shift, perpetual, skip from (7)
      attributes: half, newton on
      pair build: skip
      stencil: none
      bin: none
  (4) pair zero, perpetual, skip from (7)
      attributes: half, newton on
      pair build: skip
      stencil: none
      bin: none
  (5) pair morse, perpetual, skip from (7)
      attributes: half, newton on
      pair build: skip
      stencil: none
      bin: none
  (6) compute pair/local, occasional, copy from (7)
      attributes: half, newton on
      pair build: copy
      stencil: none
      bin: none
  (7) neighbor class addition, perpetual
      attributes: half, newton on
      pair build: half/bin/newton
      stencil: half/bin/3d/newton
      bin: standard
Per MPI rank memory allocation (min/avg/max) = 9.833 | 9.833 | 9.833 Mbytes
Step Temp E_pair E_mol TotEng Press 
    8000            0 -0.0029300993            0 -0.0029300993 -1.8307752e-07 
    8200            0 -0.0029300993            0 -0.0029300993 -1.8307752e-07 
    8400            0 -0.0029300993            0 -0.0029300993 -1.8307752e-07 
    8600            0 -0.0029300993            0 -0.0029300993 -1.8307752e-07 
    8800            0 -0.0029300993            0 -0.0029300993 -1.8307752e-07 
    9000            0 -0.0029300993            0 -0.0029300993 -1.8307752e-07 
Loop time of 0.01785 on 1 procs for 1000 steps with 2 atoms

Performance: 4840336.133 tau/day, 56022.409 timesteps/s
0.0% CPU use with 1 MPI tasks x 1 OpenMP threads

MPI task timing breakdown:
Section |  min time  |  avg time  |  max time  |%varavg| %total
---------------------------------------------------------------
Pair    | 0.001662   | 0.001662   | 0.001662   |   0.0 |  9.31
Bond    | 0.00164    | 0.00164    | 0.00164    |   0.0 |  9.19
Neigh   | 0          | 0          | 0          |   0.0 |  0.00
Comm    | 0.003697   | 0.003697   | 0.003697   |   0.0 | 20.71
Output  | 0.003015   | 0.003015   | 0.003015   |   0.0 | 16.89
Modify  | 0.00275    | 0.00275    | 0.00275    |   0.0 | 15.41
Other   |            | 0.005086   |            |       | 28.49

Nlocal:    2 ave 2 max 2 min
Histogram: 1 0 0 0 0 0 0 0 0 0
Nghost:    0 ave 0 max 0 min
Histogram: 1 0 0 0 0 0 0 0 0 0
Neighs:    0 ave 0 max 0 min
Histogram: 1 0 0 0 0 0 0 0 0 0

Total # of neighbors = 0
Ave neighs/atom = 0
Ave special neighs/atom = 0
Neighbor list builds = 0
Dangerous builds = 0
  next a
  jump SELF loop
  displace_atoms atom2 move 0 -0.02 0
  run   1000
Neighbor list info ...
  update every 1 steps, delay 10 steps, check yes
  max neighbors/atom: 2000, page size: 100000
  master list distance cutoff = 2.8
  ghost atom cutoff = 2.8
  binsize = 1.4, bins = 29 29 29
  7 neighbor lists, perpetual/occasional/extra = 6 1 0
  (1) pair lj/expand/twopiece, perpetual, skip from (7)
      attributes: half, newton on
      pair build: skip
      stencil: none
      bin: none
  (2) pair lj/twopiece, perpetual, skip from (7)
      attributes: half, newton on
      pair build: skip
      stencil: none
      bin: none
  (3) pair soft/shift, perpetual, skip from (7)
      attributes: half, newton on
      pair build: skip
      stencil: none
      bin: none
  (4) pair zero, perpetual, skip from (7)
      attributes: half, newton on
      pair build: skip
      stencil: none
      bin: none
  (5) pair morse, perpetual, skip from (7)
      attributes: half, newton on
      pair build: skip
      stencil: none
      bin: none
  (6) compute pair/local, occasional, copy from (7)
      attributes: half, newton on
      pair build: copy
      stencil: none
      bin: none
  (7) neighbor class addition, perpetual
      attributes: half, newton on
      pair build: half/bin/newton
      stencil: half/bin/3d/newton
      bin: standard
Per MPI rank memory allocation (min/avg/max) = 9.833 | 9.833 | 9.833 Mbytes
Step Temp E_pair E_mol TotEng Press 
    9000            0 -0.0031180077            0 -0.0031180077 -1.9481468e-07 
    9200            0 -0.0031180077            0 -0.0031180077 -1.9481468e-07 
    9400            0 -0.0031180077            0 -0.0031180077 -1.9481468e-07 
    9600            0 -0.0031180077            0 -0.0031180077 -1.9481468e-07 
    9800            0 -0.0031180077            0 -0.0031180077 -1.9481468e-07 
   10000            0 -0.0031180077            0 -0.0031180077 -1.9481468e-07 
Loop time of 0.016052 on 1 procs for 1000 steps with 2 atoms

Performance: 5382506.836 tau/day, 62297.533 timesteps/s
0.0% CPU use with 1 MPI tasks x 1 OpenMP threads

MPI task timing breakdown:
Section |  min time  |  avg time  |  max time  |%varavg| %total
---------------------------------------------------------------
Pair    | 0.001716   | 0.001716   | 0.001716   |   0.0 | 10.69
Bond    | 0.001368   | 0.001368   | 0.001368   |   0.0 |  8.52
Neigh   | 0          | 0          | 0          |   0.0 |  0.00
Comm    | 0.002515   | 0.002515   | 0.002515   |   0.0 | 15.67
Output  | 0.003628   | 0.003628   | 0.003628   |   0.0 | 22.60
Modify  | 0.002672   | 0.002672   | 0.002672   |   0.0 | 16.65
Other   |            | 0.004153   |            |       | 25.87

Nlocal:    2 ave 2 max 2 min
Histogram: 1 0 0 0 0 0 0 0 0 0
Nghost:    0 ave 0 max 0 min
Histogram: 1 0 0 0 0 0 0 0 0 0
Neighs:    0 ave 0 max 0 min
Histogram: 1 0 0 0 0 0 0 0 0 0

Total # of neighbors = 0
Ave neighs/atom = 0
Ave special neighs/atom = 0
Neighbor list builds = 0
Dangerous builds = 0
  next a
  jump SELF loop
  displace_atoms atom2 move 0 -0.02 0
  run   1000
Neighbor list info ...
  update every 1 steps, delay 10 steps, check yes
  max neighbors/atom: 2000, page size: 100000
  master list distance cutoff = 2.8
  ghost atom cutoff = 2.8
  binsize = 1.4, bins = 29 29 29
  7 neighbor lists, perpetual/occasional/extra = 6 1 0
  (1) pair lj/expand/twopiece, perpetual, skip from (7)
      attributes: half, newton on
      pair build: skip
      stencil: none
      bin: none
  (2) pair lj/twopiece, perpetual, skip from (7)
      attributes: half, newton on
      pair build: skip
      stencil: none
      bin: none
  (3) pair soft/shift, perpetual, skip from (7)
      attributes: half, newton on
      pair build: skip
      stencil: none
      bin: none
  (4) pair zero, perpetual, skip from (7)
      attributes: half, newton on
      pair build: skip
      stencil: none
      bin: none
  (5) pair morse, perpetual, skip from (7)
      attributes: half, newton on
      pair build: skip
      stencil: none
      bin: none
  (6) compute pair/local, occasional, copy from (7)
      attributes: half, newton on
      pair build: copy
      stencil: none
      bin: none
  (7) neighbor class addition, perpetual
      attributes: half, newton on
      pair build: half/bin/newton
      stencil: half/bin/3d/newton
      bin: standard
Per MPI rank memory allocation (min/avg/max) = 9.833 | 9.833 | 9.833 Mbytes
Step Temp E_pair E_mol TotEng Press 
   10000            0 -0.0033201229            0 -0.0033201229 -2.0743874e-07 
   10200            0 -0.0033201229            0 -0.0033201229 -2.0743874e-07 
   10400            0 -0.0033201229            0 -0.0033201229 -2.0743874e-07 
   10600            0 -0.0033201229            0 -0.0033201229 -2.0743874e-07 
   10800            0 -0.0033201229            0 -0.0033201229 -2.0743874e-07 
   11000            0 -0.0033201229            0 -0.0033201229 -2.0743874e-07 
Loop time of 0.017508 on 1 procs for 1000 steps with 2 atoms

Performance: 4934886.903 tau/day, 57116.747 timesteps/s
89.2% CPU use with 1 MPI tasks x 1 OpenMP threads

MPI task timing breakdown:
Section |  min time  |  avg time  |  max time  |%varavg| %total
---------------------------------------------------------------
Pair    | 0.002105   | 0.002105   | 0.002105   |   0.0 | 12.02
Bond    | 0.00135    | 0.00135    | 0.00135    |   0.0 |  7.71
Neigh   | 0          | 0          | 0          |   0.0 |  0.00
Comm    | 0.002562   | 0.002562   | 0.002562   |   0.0 | 14.63
Output  | 0.003116   | 0.003116   | 0.003116   |   0.0 | 17.80
Modify  | 0.003158   | 0.003158   | 0.003158   |   0.0 | 18.04
Other   |            | 0.005217   |            |       | 29.80

Nlocal:    2 ave 2 max 2 min
Histogram: 1 0 0 0 0 0 0 0 0 0
Nghost:    0 ave 0 max 0 min
Histogram: 1 0 0 0 0 0 0 0 0 0
Neighs:    0 ave 0 max 0 min
Histogram: 1 0 0 0 0 0 0 0 0 0

Total # of neighbors = 0
Ave neighs/atom = 0
Ave special neighs/atom = 0
Neighbor list builds = 0
Dangerous builds = 0
  next a
  jump SELF loop
  displace_atoms atom2 move 0 -0.02 0
  run   1000
Neighbor list info ...
  update every 1 steps, delay 10 steps, check yes
  max neighbors/atom: 2000, page size: 100000
  master list distance cutoff = 2.8
  ghost atom cutoff = 2.8
  binsize = 1.4, bins = 29 29 29
  7 neighbor lists, perpetual/occasional/extra = 6 1 0
  (1) pair lj/expand/twopiece, perpetual, skip from (7)
      attributes: half, newton on
      pair build: skip
      stencil: none
      bin: none
  (2) pair lj/twopiece, perpetual, skip from (7)
      attributes: half, newton on
      pair build: skip
      stencil: none
      bin: none
  (3) pair soft/shift, perpetual, skip from (7)
      attributes: half, newton on
      pair build: skip
      stencil: none
      bin: none
  (4) pair zero, perpetual, skip from (7)
      attributes: half, newton on
      pair build: skip
      stencil: none
      bin: none
  (5) pair morse, perpetual, skip from (7)
      attributes: half, newton on
      pair build: skip
      stencil: none
      bin: none
  (6) compute pair/local, occasional, copy from (7)
      attributes: half, newton on
      pair build: copy
      stencil: none
      bin: none
  (7) neighbor class addition, perpetual
      attributes: half, newton on
      pair build: half/bin/newton
      stencil: half/bin/3d/newton
      bin: standard
Per MPI rank memory allocation (min/avg/max) = 9.833 | 9.833 | 9.833 Mbytes
Step Temp E_pair E_mol TotEng Press 
   11000            0 -0.0035376854            0 -0.0035376854 -2.2102706e-07 
   11200            0 -0.0035376854            0 -0.0035376854 -2.2102706e-07 
   11400            0 -0.0035376854            0 -0.0035376854 -2.2102706e-07 
   11600            0 -0.0035376854            0 -0.0035376854 -2.2102706e-07 
   11800            0 -0.0035376854            0 -0.0035376854 -2.2102706e-07 
   12000            0 -0.0035376854            0 -0.0035376854 -2.2102706e-07 
Loop time of 0.015741 on 1 procs for 1000 steps with 2 atoms

Performance: 5488850.768 tau/day, 63528.365 timesteps/s
0.0% CPU use with 1 MPI tasks x 1 OpenMP threads

MPI task timing breakdown:
Section |  min time  |  avg time  |  max time  |%varavg| %total
---------------------------------------------------------------
Pair    | 0.002098   | 0.002098   | 0.002098   |   0.0 | 13.33
Bond    | 0.001254   | 0.001254   | 0.001254   |   0.0 |  7.97
Neigh   | 0          | 0          | 0          |   0.0 |  0.00
Comm    | 0.002479   | 0.002479   | 0.002479   |   0.0 | 15.75
Output  | 0.002475   | 0.002475   | 0.002475   |   0.0 | 15.72
Modify  | 0.003704   | 0.003704   | 0.003704   |   0.0 | 23.53
Other   |            | 0.003731   |            |       | 23.70

Nlocal:    2 ave 2 max 2 min
Histogram: 1 0 0 0 0 0 0 0 0 0
Nghost:    0 ave 0 max 0 min
Histogram: 1 0 0 0 0 0 0 0 0 0
Neighs:    0 ave 0 max 0 min
Histogram: 1 0 0 0 0 0 0 0 0 0

Total # of neighbors = 0
Ave neighs/atom = 0
Ave special neighs/atom = 0
Neighbor list builds = 0
Dangerous builds = 0
  next a
  jump SELF loop
  displace_atoms atom2 move 0 -0.02 0
  run   1000
Neighbor list info ...
  update every 1 steps, delay 10 steps, check yes
  max neighbors/atom: 2000, page size: 100000
  master list distance cutoff = 2.8
  ghost atom cutoff = 2.8
  binsize = 1.4, bins = 29 29 29
  7 neighbor lists, perpetual/occasional/extra = 6 1 0
  (1) pair lj/expand/twopiece, perpetual, skip from (7)
      attributes: half, newton on
      pair build: skip
      stencil: none
      bin: none
  (2) pair lj/twopiece, perpetual, skip from (7)
      attributes: half, newton on
      pair build: skip
      stencil: none
      bin: none
  (3) pair soft/shift, perpetual, skip from (7)
      attributes: half, newton on
      pair build: skip
      stencil: none
      bin: none
  (4) pair zero, perpetual, skip from (7)
      attributes: half, newton on
      pair build: skip
      stencil: none
      bin: none
  (5) pair morse, perpetual, skip from (7)
      attributes: half, newton on
      pair build: skip
      stencil: none
      bin: none
  (6) compute pair/local, occasional, copy from (7)
      attributes: half, newton on
      pair build: copy
      stencil: none
      bin: none
  (7) neighbor class addition, perpetual
      attributes: half, newton on
      pair build: half/bin/newton
      stencil: half/bin/3d/newton
      bin: standard
Per MPI rank memory allocation (min/avg/max) = 9.833 | 9.833 | 9.833 Mbytes
Step Temp E_pair E_mol TotEng Press 
   12000            0 -0.0037720588            0 -0.0037720588 -2.3566468e-07 
   12200            0 -0.0037720588            0 -0.0037720588 -2.3566468e-07 
   12400            0 -0.0037720588            0 -0.0037720588 -2.3566468e-07 
   12600            0 -0.0037720588            0 -0.0037720588 -2.3566468e-07 
   12800            0 -0.0037720588            0 -0.0037720588 -2.3566468e-07 
   13000            0 -0.0037720588            0 -0.0037720588 -2.3566468e-07 
Loop time of 0.01731 on 1 procs for 1000 steps with 2 atoms

Performance: 4991334.482 tau/day, 57770.075 timesteps/s
0.0% CPU use with 1 MPI tasks x 1 OpenMP threads

MPI task timing breakdown:
Section |  min time  |  avg time  |  max time  |%varavg| %total
---------------------------------------------------------------
Pair    | 0.001781   | 0.001781   | 0.001781   |   0.0 | 10.29
Bond    | 0.001834   | 0.001834   | 0.001834   |   0.0 | 10.60
Neigh   | 0          | 0          | 0          |   0.0 |  0.00
Comm    | 0.002806   | 0.002806   | 0.002806   |   0.0 | 16.21
Output  | 0.00334    | 0.00334    | 0.00334    |   0.0 | 19.30
Modify  | 0.003188   | 0.003188   | 0.003188   |   0.0 | 18.42
Other   |            | 0.004361   |            |       | 25.19

Nlocal:    2 ave 2 max 2 min
Histogram: 1 0 0 0 0 0 0 0 0 0
Nghost:    0 ave 0 max 0 min
Histogram: 1 0 0 0 0 0 0 0 0 0
Neighs:    0 ave 0 max 0 min
Histogram: 1 0 0 0 0 0 0 0 0 0

Total # of neighbors = 0
Ave neighs/atom = 0
Ave special neighs/atom = 0
Neighbor list builds = 0
Dangerous builds = 0
  next a
  jump SELF loop
  displace_atoms atom2 move 0 -0.02 0
  run   1000
Neighbor list info ...
  update every 1 steps, delay 10 steps, check yes
  max neighbors/atom: 2000, page size: 100000
  master list distance cutoff = 2.8
  ghost atom cutoff = 2.8
  binsize = 1.4, bins = 29 29 29
  7 neighbor lists, perpetual/occasional/extra = 6 1 0
  (1) pair lj/expand/twopiece, perpetual, skip from (7)
      attributes: half, newton on
      pair build: skip
      stencil: none
      bin: none
  (2) pair lj/twopiece, perpetual, skip from (7)
      attributes: half, newton on
      pair build: skip
      stencil: none
      bin: none
  (3) pair soft/shift, perpetual, skip from (7)
      attributes: half, newton on
      pair build: skip
      stencil: none
      bin: none
  (4) pair zero, perpetual, skip from (7)
      attributes: half, newton on
      pair build: skip
      stencil: none
      bin: none
  (5) pair morse, perpetual, skip from (7)
      attributes: half, newton on
      pair build: skip
      stencil: none
      bin: none
  (6) compute pair/local, occasional, copy from (7)
      attributes: half, newton on
      pair build: copy
      stencil: none
      bin: none
  (7) neighbor class addition, perpetual
      attributes: half, newton on
      pair build: half/bin/newton
      stencil: half/bin/3d/newton
      bin: standard
Per MPI rank memory allocation (min/avg/max) = 9.833 | 9.833 | 9.833 Mbytes
Step Temp E_pair E_mol TotEng Press 
   13000            0 -0.0040247433            0 -0.0040247433 -2.5144514e-07 
   13200            0 -0.0040247433            0 -0.0040247433 -2.5144514e-07 
   13400            0 -0.0040247433            0 -0.0040247433 -2.5144514e-07 
   13600            0 -0.0040247433            0 -0.0040247433 -2.5144514e-07 
   13800            0 -0.0040247433            0 -0.0040247433 -2.5144514e-07 
   14000            0 -0.0040247433            0 -0.0040247433 -2.5144514e-07 
Loop time of 0.015973 on 1 procs for 1000 steps with 2 atoms

Performance: 5409127.913 tau/day, 62605.647 timesteps/s
0.0% CPU use with 1 MPI tasks x 1 OpenMP threads

MPI task timing breakdown:
Section |  min time  |  avg time  |  max time  |%varavg| %total
---------------------------------------------------------------
Pair    | 0.001805   | 0.001805   | 0.001805   |   0.0 | 11.30
Bond    | 0.001674   | 0.001674   | 0.001674   |   0.0 | 10.48
Neigh   | 0          | 0          | 0          |   0.0 |  0.00
Comm    | 0.002654   | 0.002654   | 0.002654   |   0.0 | 16.62
Output  | 0.00294    | 0.00294    | 0.00294    |   0.0 | 18.41
Modify  | 0.00257    | 0.00257    | 0.00257    |   0.0 | 16.09
Other   |            | 0.00433    |            |       | 27.11

Nlocal:    2 ave 2 max 2 min
Histogram: 1 0 0 0 0 0 0 0 0 0
Nghost:    0 ave 0 max 0 min
Histogram: 1 0 0 0 0 0 0 0 0 0
Neighs:    0 ave 0 max 0 min
Histogram: 1 0 0 0 0 0 0 0 0 0

Total # of neighbors = 0
Ave neighs/atom = 0
Ave special neighs/atom = 0
Neighbor list builds = 0
Dangerous builds = 0
  next a
  jump SELF loop
  displace_atoms atom2 move 0 -0.02 0
  run   1000
Neighbor list info ...
  update every 1 steps, delay 10 steps, check yes
  max neighbors/atom: 2000, page size: 100000
  master list distance cutoff = 2.8
  ghost atom cutoff = 2.8
  binsize = 1.4, bins = 29 29 29
  7 neighbor lists, perpetual/occasional/extra = 6 1 0
  (1) pair lj/expand/twopiece, perpetual, skip from (7)
      attributes: half, newton on
      pair build: skip
      stencil: none
      bin: none
  (2) pair lj/twopiece, perpetual, skip from (7)
      attributes: half, newton on
      pair build: skip
      stencil: none
      bin: none
  (3) pair soft/shift, perpetual, skip from (7)
      attributes: half, newton on
      pair build: skip
      stencil: none
      bin: none
  (4) pair zero, perpetual, skip from (7)
      attributes: half, newton on
      pair build: skip
      stencil: none
      bin: none
  (5) pair morse, perpetual, skip from (7)
      attributes: half, newton on
      pair build: skip
      stencil: none
      bin: none
  (6) compute pair/local, occasional, copy from (7)
      attributes: half, newton on
      pair build: copy
      stencil: none
      bin: none
  (7) neighbor class addition, perpetual
      attributes: half, newton on
      pair build: half/bin/newton
      stencil: half/bin/3d/newton
      bin: standard
Per MPI rank memory allocation (min/avg/max) = 9.833 | 9.833 | 9.833 Mbytes
Step Temp E_pair E_mol TotEng Press 
   14000            0 -0.0042973917            0 -0.0042973917 -2.6847146e-07 
   14200            0 -0.0042973917            0 -0.0042973917 -2.6847146e-07 
   14400            0 -0.0042973917            0 -0.0042973917 -2.6847146e-07 
   14600            0 -0.0042973917            0 -0.0042973917 -2.6847146e-07 
   14800            0 -0.0042973917            0 -0.0042973917 -2.6847146e-07 
   15000            0 -0.0042973917            0 -0.0042973917 -2.6847146e-07 
Loop time of 0.015185 on 1 procs for 1000 steps with 2 atoms

Performance: 5689825.498 tau/day, 65854.462 timesteps/s
0.0% CPU use with 1 MPI tasks x 1 OpenMP threads

MPI task timing breakdown:
Section |  min time  |  avg time  |  max time  |%varavg| %total
---------------------------------------------------------------
Pair    | 0.001789   | 0.001789   | 0.001789   |   0.0 | 11.78
Bond    | 0.001768   | 0.001768   | 0.001768   |   0.0 | 11.64
Neigh   | 0          | 0          | 0          |   0.0 |  0.00
Comm    | 0.002692   | 0.002692   | 0.002692   |   0.0 | 17.73
Output  | 0.002646   | 0.002646   | 0.002646   |   0.0 | 17.43
Modify  | 0.002542   | 0.002542   | 0.002542   |   0.0 | 16.74
Other   |            | 0.003748   |            |       | 24.68

Nlocal:    2 ave 2 max 2 min
Histogram: 1 0 0 0 0 0 0 0 0 0
Nghost:    0 ave 0 max 0 min
Histogram: 1 0 0 0 0 0 0 0 0 0
Neighs:    0 ave 0 max 0 min
Histogram: 1 0 0 0 0 0 0 0 0 0

Total # of neighbors = 0
Ave neighs/atom = 0
Ave special neighs/atom = 0
Neighbor list builds = 0
Dangerous builds = 0
  next a
  jump SELF loop
  displace_atoms atom2 move 0 -0.02 0
  run   1000
Neighbor list info ...
  update every 1 steps, delay 10 steps, check yes
  max neighbors/atom: 2000, page size: 100000
  master list distance cutoff = 2.8
  ghost atom cutoff = 2.8
  binsize = 1.4, bins = 29 29 29
  7 neighbor lists, perpetual/occasional/extra = 6 1 0
  (1) pair lj/expand/twopiece, perpetual, skip from (7)
      attributes: half, newton on
      pair build: skip
      stencil: none
      bin: none
  (2) pair lj/twopiece, perpetual, skip from (7)
      attributes: half, newton on
      pair build: skip
      stencil: none
      bin: none
  (3) pair soft/shift, perpetual, skip from (7)
      attributes: half, newton on
      pair build: skip
      stencil: none
      bin: none
  (4) pair zero, perpetual, skip from (7)
      attributes: half, newton on
      pair build: skip
      stencil: none
      bin: none
  (5) pair morse, perpetual, skip from (7)
      attributes: half, newton on
      pair build: skip
      stencil: none
      bin: none
  (6) compute pair/local, occasional, copy from (7)
      attributes: half, newton on
      pair build: copy
      stencil: none
      bin: none
  (7) neighbor class addition, perpetual
      attributes: half, newton on
      pair build: half/bin/newton
      stencil: half/bin/3d/newton
      bin: standard
Per MPI rank memory allocation (min/avg/max) = 9.833 | 9.833 | 9.833 Mbytes
Step Temp E_pair E_mol TotEng Press 
   15000            0 -0.0045918262            0 -0.0045918262 -2.8685723e-07 
   15200            0 -0.0045918262            0 -0.0045918262 -2.8685723e-07 
   15400            0 -0.0045918262            0 -0.0045918262 -2.8685723e-07 
   15600            0 -0.0045918262            0 -0.0045918262 -2.8685723e-07 
   15800            0 -0.0045918262            0 -0.0045918262 -2.8685723e-07 
   16000            0 -0.0045918262            0 -0.0045918262 -2.8685723e-07 
Loop time of 0.019975 on 1 procs for 1000 steps with 2 atoms

Performance: 4325406.758 tau/day, 50062.578 timesteps/s
78.2% CPU use with 1 MPI tasks x 1 OpenMP threads

MPI task timing breakdown:
Section |  min time  |  avg time  |  max time  |%varavg| %total
---------------------------------------------------------------
Pair    | 0.002619   | 0.002619   | 0.002619   |   0.0 | 13.11
Bond    | 0.001513   | 0.001513   | 0.001513   |   0.0 |  7.57
Neigh   | 0          | 0          | 0          |   0.0 |  0.00
Comm    | 0.002841   | 0.002841   | 0.002841   |   0.0 | 14.22
Output  | 0.004896   | 0.004896   | 0.004896   |   0.0 | 24.51
Modify  | 0.003426   | 0.003426   | 0.003426   |   0.0 | 17.15
Other   |            | 0.00468    |            |       | 23.43

Nlocal:    2 ave 2 max 2 min
Histogram: 1 0 0 0 0 0 0 0 0 0
Nghost:    0 ave 0 max 0 min
Histogram: 1 0 0 0 0 0 0 0 0 0
Neighs:    0 ave 0 max 0 min
Histogram: 1 0 0 0 0 0 0 0 0 0

Total # of neighbors = 0
Ave neighs/atom = 0
Ave special neighs/atom = 0
Neighbor list builds = 0
Dangerous builds = 0
  next a
  jump SELF loop
  displace_atoms atom2 move 0 -0.02 0
  run   1000
Neighbor list info ...
  update every 1 steps, delay 10 steps, check yes
  max neighbors/atom: 2000, page size: 100000
  master list distance cutoff = 2.8
  ghost atom cutoff = 2.8
  binsize = 1.4, bins = 29 29 29
  7 neighbor lists, perpetual/occasional/extra = 6 1 0
  (1) pair lj/expand/twopiece, perpetual, skip from (7)
      attributes: half, newton on
      pair build: skip
      stencil: none
      bin: none
  (2) pair lj/twopiece, perpetual, skip from (7)
      attributes: half, newton on
      pair build: skip
      stencil: none
      bin: none
  (3) pair soft/shift, perpetual, skip from (7)
      attributes: half, newton on
      pair build: skip
      stencil: none
      bin: none
  (4) pair zero, perpetual, skip from (7)
      attributes: half, newton on
      pair build: skip
      stencil: none
      bin: none
  (5) pair morse, perpetual, skip from (7)
      attributes: half, newton on
      pair build: skip
      stencil: none
      bin: none
  (6) compute pair/local, occasional, copy from (7)
      attributes: half, newton on
      pair build: copy
      stencil: none
      bin: none
  (7) neighbor class addition, perpetual
      attributes: half, newton on
      pair build: half/bin/newton
      stencil: half/bin/3d/newton
      bin: standard
Per MPI rank memory allocation (min/avg/max) = 9.833 | 9.833 | 9.833 Mbytes
Step Temp E_pair E_mol TotEng Press 
   16000            0 -0.0049100579            0 -0.0049100579 -3.0672779e-07 
   16200            0 -0.0049100579            0 -0.0049100579 -3.0672779e-07 
   16400            0 -0.0049100579            0 -0.0049100579 -3.0672779e-07 
   16600            0 -0.0049100579            0 -0.0049100579 -3.0672779e-07 
   16800            0 -0.0049100579            0 -0.0049100579 -3.0672779e-07 
   17000            0 -0.0049100579            0 -0.0049100579 -3.0672779e-07 
Loop time of 0.014769 on 1 procs for 1000 steps with 2 atoms

Performance: 5850091.407 tau/day, 67709.391 timesteps/s
0.0% CPU use with 1 MPI tasks x 1 OpenMP threads

MPI task timing breakdown:
Section |  min time  |  avg time  |  max time  |%varavg| %total
---------------------------------------------------------------
Pair    | 0.00161    | 0.00161    | 0.00161    |   0.0 | 10.90
Bond    | 0.00131    | 0.00131    | 0.00131    |   0.0 |  8.87
Neigh   | 0          | 0          | 0          |   0.0 |  0.00
Comm    | 0.00247    | 0.00247    | 0.00247    |   0.0 | 16.72
Output  | 0.002583   | 0.002583   | 0.002583   |   0.0 | 17.49
Modify  | 0.003074   | 0.003074   | 0.003074   |   0.0 | 20.81
Other   |            | 0.003722   |            |       | 25.20

Nlocal:    2 ave 2 max 2 min
Histogram: 1 0 0 0 0 0 0 0 0 0
Nghost:    0 ave 0 max 0 min
Histogram: 1 0 0 0 0 0 0 0 0 0
Neighs:    0 ave 0 max 0 min
Histogram: 1 0 0 0 0 0 0 0 0 0

Total # of neighbors = 0
Ave neighs/atom = 0
Ave special neighs/atom = 0
Neighbor list builds = 0
Dangerous builds = 0
  next a
  jump SELF loop
  displace_atoms atom2 move 0 -0.02 0
  run   1000
Neighbor list info ...
  update every 1 steps, delay 10 steps, check yes
  max neighbors/atom: 2000, page size: 100000
  master list distance cutoff = 2.8
  ghost atom cutoff = 2.8
  binsize = 1.4, bins = 29 29 29
  7 neighbor lists, perpetual/occasional/extra = 6 1 0
  (1) pair lj/expand/twopiece, perpetual, skip from (7)
      attributes: half, newton on
      pair build: skip
      stencil: none
      bin: none
  (2) pair lj/twopiece, perpetual, skip from (7)
      attributes: half, newton on
      pair build: skip
      stencil: none
      bin: none
  (3) pair soft/shift, perpetual, skip from (7)
      attributes: half, newton on
      pair build: skip
      stencil: none
      bin: none
  (4) pair zero, perpetual, skip from (7)
      attributes: half, newton on
      pair build: skip
      stencil: none
      bin: none
  (5) pair morse, perpetual, skip from (7)
      attributes: half, newton on
      pair build: skip
      stencil: none
      bin: none
  (6) compute pair/local, occasional, copy from (7)
      attributes: half, newton on
      pair build: copy
      stencil: none
      bin: none
  (7) neighbor class addition, perpetual
      attributes: half, newton on
      pair build: half/bin/newton
      stencil: half/bin/3d/newton
      bin: standard
Per MPI rank memory allocation (min/avg/max) = 9.833 | 9.833 | 9.833 Mbytes
Step Temp E_pair E_mol TotEng Press 
   17000            0 -0.0052543095            0 -0.0052543095 -3.2822161e-07 
   17200            0 -0.0052543095            0 -0.0052543095 -3.2822161e-07 
   17400            0 -0.0052543095            0 -0.0052543095 -3.2822161e-07 
   17600            0 -0.0052543095            0 -0.0052543095 -3.2822161e-07 
   17800            0 -0.0052543095            0 -0.0052543095 -3.2822161e-07 
   18000            0 -0.0052543095            0 -0.0052543095 -3.2822161e-07 
Loop time of 0.015038 on 1 procs for 1000 steps with 2 atoms

Performance: 5745444.868 tau/day, 66498.204 timesteps/s
103.9% CPU use with 1 MPI tasks x 1 OpenMP threads

MPI task timing breakdown:
Section |  min time  |  avg time  |  max time  |%varavg| %total
---------------------------------------------------------------
Pair    | 0.001567   | 0.001567   | 0.001567   |   0.0 | 10.42
Bond    | 0.002033   | 0.002033   | 0.002033   |   0.0 | 13.52
Neigh   | 0          | 0          | 0          |   0.0 |  0.00
Comm    | 0.002244   | 0.002244   | 0.002244   |   0.0 | 14.92
Output  | 0.002359   | 0.002359   | 0.002359   |   0.0 | 15.69
Modify  | 0.003041   | 0.003041   | 0.003041   |   0.0 | 20.22
Other   |            | 0.003794   |            |       | 25.23

Nlocal:    2 ave 2 max 2 min
Histogram: 1 0 0 0 0 0 0 0 0 0
Nghost:    0 ave 0 max 0 min
Histogram: 1 0 0 0 0 0 0 0 0 0
Neighs:    0 ave 0 max 0 min
Histogram: 1 0 0 0 0 0 0 0 0 0

Total # of neighbors = 0
Ave neighs/atom = 0
Ave special neighs/atom = 0
Neighbor list builds = 0
Dangerous builds = 0
  next a
  jump SELF loop
  displace_atoms atom2 move 0 -0.02 0
  run   1000
Neighbor list info ...
  update every 1 steps, delay 10 steps, check yes
  max neighbors/atom: 2000, page size: 100000
  master list distance cutoff = 2.8
  ghost atom cutoff = 2.8
  binsize = 1.4, bins = 29 29 29
  7 neighbor lists, perpetual/occasional/extra = 6 1 0
  (1) pair lj/expand/twopiece, perpetual, skip from (7)
      attributes: half, newton on
      pair build: skip
      stencil: none
      bin: none
  (2) pair lj/twopiece, perpetual, skip from (7)
      attributes: half, newton on
      pair build: skip
      stencil: none
      bin: none
  (3) pair soft/shift, perpetual, skip from (7)
      attributes: half, newton on
      pair build: skip
      stencil: none
      bin: none
  (4) pair zero, perpetual, skip from (7)
      attributes: half, newton on
      pair build: skip
      stencil: none
      bin: none
  (5) pair morse, perpetual, skip from (7)
      attributes: half, newton on
      pair build: skip
      stencil: none
      bin: none
  (6) compute pair/local, occasional, copy from (7)
      attributes: half, newton on
      pair build: copy
      stencil: none
      bin: none
  (7) neighbor class addition, perpetual
      attributes: half, newton on
      pair build: half/bin/newton
      stencil: half/bin/3d/newton
      bin: standard
Per MPI rank memory allocation (min/avg/max) = 9.833 | 9.833 | 9.833 Mbytes
Step Temp E_pair E_mol TotEng Press 
   18000            0 -0.0056270393            0 -0.0056270393 -3.5149184e-07 
   18200            0 -0.0056270393            0 -0.0056270393 -3.5149184e-07 
   18400            0 -0.0056270393            0 -0.0056270393 -3.5149184e-07 
   18600            0 -0.0056270393            0 -0.0056270393 -3.5149184e-07 
   18800            0 -0.0056270393            0 -0.0056270393 -3.5149184e-07 
   19000            0 -0.0056270393            0 -0.0056270393 -3.5149184e-07 
Loop time of 0.019924 on 1 procs for 1000 steps with 2 atoms

Performance: 4336478.627 tau/day, 50190.725 timesteps/s
0.0% CPU use with 1 MPI tasks x 1 OpenMP threads

MPI task timing breakdown:
Section |  min time  |  avg time  |  max time  |%varavg| %total
---------------------------------------------------------------
Pair    | 0.002573   | 0.002573   | 0.002573   |   0.0 | 12.91
Bond    | 0.002254   | 0.002254   | 0.002254   |   0.0 | 11.31
Neigh   | 0          | 0          | 0          |   0.0 |  0.00
Comm    | 0.003197   | 0.003197   | 0.003197   |   0.0 | 16.05
Output  | 0.003723   | 0.003723   | 0.003723   |   0.0 | 18.69
Modify  | 0.003414   | 0.003414   | 0.003414   |   0.0 | 17.14
Other   |            | 0.004763   |            |       | 23.91

Nlocal:    2 ave 2 max 2 min
Histogram: 1 0 0 0 0 0 0 0 0 0
Nghost:    0 ave 0 max 0 min
Histogram: 1 0 0 0 0 0 0 0 0 0
Neighs:    0 ave 0 max 0 min
Histogram: 1 0 0 0 0 0 0 0 0 0

Total # of neighbors = 0
Ave neighs/atom = 0
Ave special neighs/atom = 0
Neighbor list builds = 0
Dangerous builds = 0
  next a
  jump SELF loop
  displace_atoms atom2 move 0 -0.02 0
  run   1000
Neighbor list info ...
  update every 1 steps, delay 10 steps, check yes
  max neighbors/atom: 2000, page size: 100000
  master list distance cutoff = 2.8
  ghost atom cutoff = 2.8
  binsize = 1.4, bins = 29 29 29
  7 neighbor lists, perpetual/occasional/extra = 6 1 0
  (1) pair lj/expand/twopiece, perpetual, skip from (7)
      attributes: half, newton on
      pair build: skip
      stencil: none
      bin: none
  (2) pair lj/twopiece, perpetual, skip from (7)
      attributes: half, newton on
      pair build: skip
      stencil: none
      bin: none
  (3) pair soft/shift, perpetual, skip from (7)
      attributes: half, newton on
      pair build: skip
      stencil: none
      bin: none
  (4) pair zero, perpetual, skip from (7)
      attributes: half, newton on
      pair build: skip
      stencil: none
      bin: none
  (5) pair morse, perpetual, skip from (7)
      attributes: half, newton on
      pair build: skip
      stencil: none
      bin: none
  (6) compute pair/local, occasional, copy from (7)
      attributes: half, newton on
      pair build: copy
      stencil: none
      bin: none
  (7) neighbor class addition, perpetual
      attributes: half, newton on
      pair build: half/bin/newton
      stencil: half/bin/3d/newton
      bin: standard
Per MPI rank memory allocation (min/avg/max) = 9.833 | 9.833 | 9.833 Mbytes
Step Temp E_pair E_mol TotEng Press 
   19000            0 -0.0060309702            0 -0.0060309702 -3.7670804e-07 
   19200            0 -0.0060309702            0 -0.0060309702 -3.7670804e-07 
   19400            0 -0.0060309702            0 -0.0060309702 -3.7670804e-07 
   19600            0 -0.0060309702            0 -0.0060309702 -3.7670804e-07 
   19800            0 -0.0060309702            0 -0.0060309702 -3.7670804e-07 
   20000            0 -0.0060309702            0 -0.0060309702 -3.7670804e-07 
Loop time of 0.017915 on 1 procs for 1000 steps with 2 atoms

Performance: 4822774.218 tau/day, 55819.146 timesteps/s
0.0% CPU use with 1 MPI tasks x 1 OpenMP threads

MPI task timing breakdown:
Section |  min time  |  avg time  |  max time  |%varavg| %total
---------------------------------------------------------------
Pair    | 0.001919   | 0.001919   | 0.001919   |   0.0 | 10.71
Bond    | 0.00149    | 0.00149    | 0.00149    |   0.0 |  8.32
Neigh   | 0          | 0          | 0          |   0.0 |  0.00
Comm    | 0.002807   | 0.002807   | 0.002807   |   0.0 | 15.67
Output  | 0.003791   | 0.003791   | 0.003791   |   0.0 | 21.16
Modify  | 0.002806   | 0.002806   | 0.002806   |   0.0 | 15.66
Other   |            | 0.005102   |            |       | 28.48

Nlocal:    2 ave 2 max 2 min
Histogram: 1 0 0 0 0 0 0 0 0 0
Nghost:    0 ave 0 max 0 min
Histogram: 1 0 0 0 0 0 0 0 0 0
Neighs:    0 ave 0 max 0 min
Histogram: 1 0 0 0 0 0 0 0 0 0

Total # of neighbors = 0
Ave neighs/atom = 0
Ave special neighs/atom = 0
Neighbor list builds = 0
Dangerous builds = 0
  next a
  jump SELF loop
  displace_atoms atom2 move 0 -0.02 0
  run   1000
Neighbor list info ...
  update every 1 steps, delay 10 steps, check yes
  max neighbors/atom: 2000, page size: 100000
  master list distance cutoff = 2.8
  ghost atom cutoff = 2.8
  binsize = 1.4, bins = 29 29 29
  7 neighbor lists, perpetual/occasional/extra = 6 1 0
  (1) pair lj/expand/twopiece, perpetual, skip from (7)
      attributes: half, newton on
      pair build: skip
      stencil: none
      bin: none
  (2) pair lj/twopiece, perpetual, skip from (7)
      attributes: half, newton on
      pair build: skip
      stencil: none
      bin: none
  (3) pair soft/shift, perpetual, skip from (7)
      attributes: half, newton on
      pair build: skip
      stencil: none
      bin: none
  (4) pair zero, perpetual, skip from (7)
      attributes: half, newton on
      pair build: skip
      stencil: none
      bin: none
  (5) pair morse, perpetual, skip from (7)
      attributes: half, newton on
      pair build: skip
      stencil: none
      bin: none
  (6) compute pair/local, occasional, copy from (7)
      attributes: half, newton on
      pair build: copy
      stencil: none
      bin: none
  (7) neighbor class addition, perpetual
      attributes: half, newton on
      pair build: half/bin/newton
      stencil: half/bin/3d/newton
      bin: standard
Per MPI rank memory allocation (min/avg/max) = 9.833 | 9.833 | 9.833 Mbytes
Step Temp E_pair E_mol TotEng Press 
   20000            0 -0.006469121            0 -0.006469121 -4.0405816e-07 
   20200            0 -0.006469121            0 -0.006469121 -4.0405816e-07 
   20400            0 -0.006469121            0 -0.006469121 -4.0405816e-07 
   20600            0 -0.006469121            0 -0.006469121 -4.0405816e-07 
   20800            0 -0.006469121            0 -0.006469121 -4.0405816e-07 
   21000            0 -0.006469121            0 -0.006469121 -4.0405816e-07 
Loop time of 0.017989 on 1 procs for 1000 steps with 2 atoms

Performance: 4802935.123 tau/day, 55589.527 timesteps/s
86.9% CPU use with 1 MPI tasks x 1 OpenMP threads

MPI task timing breakdown:
Section |  min time  |  avg time  |  max time  |%varavg| %total
---------------------------------------------------------------
Pair    | 0.002439   | 0.002439   | 0.002439   |   0.0 | 13.56
Bond    | 0.001837   | 0.001837   | 0.001837   |   0.0 | 10.21
Neigh   | 0          | 0          | 0          |   0.0 |  0.00
Comm    | 0.002932   | 0.002932   | 0.002932   |   0.0 | 16.30
Output  | 0.003078   | 0.003078   | 0.003078   |   0.0 | 17.11
Modify  | 0.003045   | 0.003045   | 0.003045   |   0.0 | 16.93
Other   |            | 0.004658   |            |       | 25.89

Nlocal:    2 ave 2 max 2 min
Histogram: 1 0 0 0 0 0 0 0 0 0
Nghost:    0 ave 0 max 0 min
Histogram: 1 0 0 0 0 0 0 0 0 0
Neighs:    0 ave 0 max 0 min
Histogram: 1 0 0 0 0 0 0 0 0 0

Total # of neighbors = 0
Ave neighs/atom = 0
Ave special neighs/atom = 0
Neighbor list builds = 0
Dangerous builds = 0
  next a
  jump SELF loop
  displace_atoms atom2 move 0 -0.02 0
  run   1000
Neighbor list info ...
  update every 1 steps, delay 10 steps, check yes
  max neighbors/atom: 2000, page size: 100000
  master list distance cutoff = 2.8
  ghost atom cutoff = 2.8
  binsize = 1.4, bins = 29 29 29
  7 neighbor lists, perpetual/occasional/extra = 6 1 0
  (1) pair lj/expand/twopiece, perpetual, skip from (7)
      attributes: half, newton on
      pair build: skip
      stencil: none
      bin: none
  (2) pair lj/twopiece, perpetual, skip from (7)
      attributes: half, newton on
      pair build: skip
      stencil: none
      bin: none
  (3) pair soft/shift, perpetual, skip from (7)
      attributes: half, newton on
      pair build: skip
      stencil: none
      bin: none
  (4) pair zero, perpetual, skip from (7)
      attributes: half, newton on
      pair build: skip
      stencil: none
      bin: none
  (5) pair morse, perpetual, skip from (7)
      attributes: half, newton on
      pair build: skip
      stencil: none
      bin: none
  (6) compute pair/local, occasional, copy from (7)
      attributes: half, newton on
      pair build: copy
      stencil: none
      bin: none
  (7) neighbor class addition, perpetual
      attributes: half, newton on
      pair build: half/bin/newton
      stencil: half/bin/3d/newton
      bin: standard
Per MPI rank memory allocation (min/avg/max) = 9.833 | 9.833 | 9.833 Mbytes
Step Temp E_pair E_mol TotEng Press 
   21000            0 -0.0069448426            0 -0.0069448426 -4.337508e-07 
   21200            0 -0.0069448426            0 -0.0069448426 -4.337508e-07 
   21400            0 -0.0069448426            0 -0.0069448426 -4.337508e-07 
   21600            0 -0.0069448426            0 -0.0069448426 -4.337508e-07 
   21800            0 -0.0069448426            0 -0.0069448426 -4.337508e-07 
   22000            0 -0.0069448426            0 -0.0069448426 -4.337508e-07 
Loop time of 0.025493 on 1 procs for 1000 steps with 2 atoms

Performance: 3389165.654 tau/day, 39226.454 timesteps/s
61.3% CPU use with 1 MPI tasks x 1 OpenMP threads

MPI task timing breakdown:
Section |  min time  |  avg time  |  max time  |%varavg| %total
---------------------------------------------------------------
Pair    | 0.007767   | 0.007767   | 0.007767   |   0.0 | 30.47
Bond    | 0.001534   | 0.001534   | 0.001534   |   0.0 |  6.02
Neigh   | 0          | 0          | 0          |   0.0 |  0.00
Comm    | 0.003614   | 0.003614   | 0.003614   |   0.0 | 14.18
Output  | 0.004921   | 0.004921   | 0.004921   |   0.0 | 19.30
Modify  | 0.00317    | 0.00317    | 0.00317    |   0.0 | 12.43
Other   |            | 0.004487   |            |       | 17.60

Nlocal:    2 ave 2 max 2 min
Histogram: 1 0 0 0 0 0 0 0 0 0
Nghost:    0 ave 0 max 0 min
Histogram: 1 0 0 0 0 0 0 0 0 0
Neighs:    0 ave 0 max 0 min
Histogram: 1 0 0 0 0 0 0 0 0 0

Total # of neighbors = 0
Ave neighs/atom = 0
Ave special neighs/atom = 0
Neighbor list builds = 0
Dangerous builds = 0
  next a
  jump SELF loop
  displace_atoms atom2 move 0 -0.02 0
  run   1000
Neighbor list info ...
  update every 1 steps, delay 10 steps, check yes
  max neighbors/atom: 2000, page size: 100000
  master list distance cutoff = 2.8
  ghost atom cutoff = 2.8
  binsize = 1.4, bins = 29 29 29
  7 neighbor lists, perpetual/occasional/extra = 6 1 0
  (1) pair lj/expand/twopiece, perpetual, skip from (7)
      attributes: half, newton on
      pair build: skip
      stencil: none
      bin: none
  (2) pair lj/twopiece, perpetual, skip from (7)
      attributes: half, newton on
      pair build: skip
      stencil: none
      bin: none
  (3) pair soft/shift, perpetual, skip from (7)
      attributes: half, newton on
      pair build: skip
      stencil: none
      bin: none
  (4) pair zero, perpetual, skip from (7)
      attributes: half, newton on
      pair build: skip
      stencil: none
      bin: none
  (5) pair morse, perpetual, skip from (7)
      attributes: half, newton on
      pair build: skip
      stencil: none
      bin: none
  (6) compute pair/local, occasional, copy from (7)
      attributes: half, newton on
      pair build: copy
      stencil: none
      bin: none
  (7) neighbor class addition, perpetual
      attributes: half, newton on
      pair build: half/bin/newton
      stencil: half/bin/3d/newton
      bin: standard
Per MPI rank memory allocation (min/avg/max) = 9.833 | 9.833 | 9.833 Mbytes
Step Temp E_pair E_mol TotEng Press 
   22000            0 -0.0074618595            0 -0.0074618595 -4.6601771e-07 
   22200            0 -0.0074618595            0 -0.0074618595 -4.6601771e-07 
   22400            0 -0.0074618595            0 -0.0074618595 -4.6601771e-07 
   22600            0 -0.0074618595            0 -0.0074618595 -4.6601771e-07 
   22800            0 -0.0074618595            0 -0.0074618595 -4.6601771e-07 
   23000            0 -0.0074618595            0 -0.0074618595 -4.6601771e-07 
Loop time of 0.01933 on 1 procs for 1000 steps with 2 atoms

Performance: 4469736.152 tau/day, 51733.057 timesteps/s
80.8% CPU use with 1 MPI tasks x 1 OpenMP threads

MPI task timing breakdown:
Section |  min time  |  avg time  |  max time  |%varavg| %total
---------------------------------------------------------------
Pair    | 0.00191    | 0.00191    | 0.00191    |   0.0 |  9.88
Bond    | 0.001961   | 0.001961   | 0.001961   |   0.0 | 10.14
Neigh   | 0          | 0          | 0          |   0.0 |  0.00
Comm    | 0.003226   | 0.003226   | 0.003226   |   0.0 | 16.69
Output  | 0.003383   | 0.003383   | 0.003383   |   0.0 | 17.50
Modify  | 0.004416   | 0.004416   | 0.004416   |   0.0 | 22.85
Other   |            | 0.004434   |            |       | 22.94

Nlocal:    2 ave 2 max 2 min
Histogram: 1 0 0 0 0 0 0 0 0 0
Nghost:    0 ave 0 max 0 min
Histogram: 1 0 0 0 0 0 0 0 0 0
Neighs:    0 ave 0 max 0 min
Histogram: 1 0 0 0 0 0 0 0 0 0

Total # of neighbors = 0
Ave neighs/atom = 0
Ave special neighs/atom = 0
Neighbor list builds = 0
Dangerous builds = 0
  next a
  jump SELF loop
  displace_atoms atom2 move 0 -0.02 0
  run   1000
Neighbor list info ...
  update every 1 steps, delay 10 steps, check yes
  max neighbors/atom: 2000, page size: 100000
  master list distance cutoff = 2.8
  ghost atom cutoff = 2.8
  binsize = 1.4, bins = 29 29 29
  7 neighbor lists, perpetual/occasional/extra = 6 1 0
  (1) pair lj/expand/twopiece, perpetual, skip from (7)
      attributes: half, newton on
      pair build: skip
      stencil: none
      bin: none
  (2) pair lj/twopiece, perpetual, skip from (7)
      attributes: half, newton on
      pair build: skip
      stencil: none
      bin: none
  (3) pair soft/shift, perpetual, skip from (7)
      attributes: half, newton on
      pair build: skip
      stencil: none
      bin: none
  (4) pair zero, perpetual, skip from (7)
      attributes: half, newton on
      pair build: skip
      stencil: none
      bin: none
  (5) pair morse, perpetual, skip from (7)
      attributes: half, newton on
      pair build: skip
      stencil: none
      bin: none
  (6) compute pair/local, occasional, copy from (7)
      attributes: half, newton on
      pair build: copy
      stencil: none
      bin: none
  (7) neighbor class addition, perpetual
      attributes: half, newton on
      pair build: half/bin/newton
      stencil: half/bin/3d/newton
      bin: standard
Per MPI rank memory allocation (min/avg/max) = 9.833 | 9.833 | 9.833 Mbytes
Step Temp E_pair E_mol TotEng Press 
   23000            0 -0.0080243161            0 -0.0080243161 -5.0111667e-07 
   23200            0 -0.0080243161            0 -0.0080243161 -5.0111667e-07 
   23400            0 -0.0080243161            0 -0.0080243161 -5.0111667e-07 
   23600            0 -0.0080243161            0 -0.0080243161 -5.0111667e-07 
   23800            0 -0.0080243161            0 -0.0080243161 -5.0111667e-07 
   24000            0 -0.0080243161            0 -0.0080243161 -5.0111667e-07 
Loop time of 0.04058 on 1 procs for 1000 steps with 2 atoms

Performance: 2129127.648 tau/day, 24642.681 timesteps/s
0.0% CPU use with 1 MPI tasks x 1 OpenMP threads

MPI task timing breakdown:
Section |  min time  |  avg time  |  max time  |%varavg| %total
---------------------------------------------------------------
Pair    | 0.002203   | 0.002203   | 0.002203   |   0.0 |  5.43
Bond    | 0.001853   | 0.001853   | 0.001853   |   0.0 |  4.57
Neigh   | 0          | 0          | 0          |   0.0 |  0.00
Comm    | 0.007451   | 0.007451   | 0.007451   |   0.0 | 18.36
Output  | 0.011982   | 0.011982   | 0.011982   |   0.0 | 29.53
Modify  | 0.0117     | 0.0117     | 0.0117     |   0.0 | 28.83
Other   |            | 0.005391   |            |       | 13.28

Nlocal:    2 ave 2 max 2 min
Histogram: 1 0 0 0 0 0 0 0 0 0
Nghost:    0 ave 0 max 0 min
Histogram: 1 0 0 0 0 0 0 0 0 0
Neighs:    0 ave 0 max 0 min
Histogram: 1 0 0 0 0 0 0 0 0 0

Total # of neighbors = 0
Ave neighs/atom = 0
Ave special neighs/atom = 0
Neighbor list builds = 0
Dangerous builds = 0
  next a
  jump SELF loop
  displace_atoms atom2 move 0 -0.02 0
  run   1000
Neighbor list info ...
  update every 1 steps, delay 10 steps, check yes
  max neighbors/atom: 2000, page size: 100000
  master list distance cutoff = 2.8
  ghost atom cutoff = 2.8
  binsize = 1.4, bins = 29 29 29
  7 neighbor lists, perpetual/occasional/extra = 6 1 0
  (1) pair lj/expand/twopiece, perpetual, skip from (7)
      attributes: half, newton on
      pair build: skip
      stencil: none
      bin: none
  (2) pair lj/twopiece, perpetual, skip from (7)
      attributes: half, newton on
      pair build: skip
      stencil: none
      bin: none
  (3) pair soft/shift, perpetual, skip from (7)
      attributes: half, newton on
      pair build: skip
      stencil: none
      bin: none
  (4) pair zero, perpetual, skip from (7)
      attributes: half, newton on
      pair build: skip
      stencil: none
      bin: none
  (5) pair morse, perpetual, skip from (7)
      attributes: half, newton on
      pair build: skip
      stencil: none
      bin: none
  (6) compute pair/local, occasional, copy from (7)
      attributes: half, newton on
      pair build: copy
      stencil: none
      bin: none
  (7) neighbor class addition, perpetual
      attributes: half, newton on
      pair build: half/bin/newton
      stencil: half/bin/3d/newton
      bin: standard
Per MPI rank memory allocation (min/avg/max) = 9.833 | 9.833 | 9.833 Mbytes
Step Temp E_pair E_mol TotEng Press 
   24000            0 -0.0086368298            0 -0.0086368298 -5.3933484e-07 
   24200            0 -0.0086368298            0 -0.0086368298 -5.3933484e-07 
   24400            0 -0.0086368298            0 -0.0086368298 -5.3933484e-07 
   24600            0 -0.0086368298            0 -0.0086368298 -5.3933484e-07 
   24800            0 -0.0086368298            0 -0.0086368298 -5.3933484e-07 
   25000            0 -0.0086368298            0 -0.0086368298 -5.3933484e-07 
Loop time of 0.015757 on 1 procs for 1000 steps with 2 atoms

Performance: 5483277.268 tau/day, 63463.857 timesteps/s
0.0% CPU use with 1 MPI tasks x 1 OpenMP threads

MPI task timing breakdown:
Section |  min time  |  avg time  |  max time  |%varavg| %total
---------------------------------------------------------------
Pair    | 0.001681   | 0.001681   | 0.001681   |   0.0 | 10.67
Bond    | 0.001292   | 0.001292   | 0.001292   |   0.0 |  8.20
Neigh   | 0          | 0          | 0          |   0.0 |  0.00
Comm    | 0.002438   | 0.002438   | 0.002438   |   0.0 | 15.47
Output  | 0.00255    | 0.00255    | 0.00255    |   0.0 | 16.18
Modify  | 0.002936   | 0.002936   | 0.002936   |   0.0 | 18.63
Other   |            | 0.00486    |            |       | 30.84

Nlocal:    2 ave 2 max 2 min
Histogram: 1 0 0 0 0 0 0 0 0 0
Nghost:    0 ave 0 max 0 min
Histogram: 1 0 0 0 0 0 0 0 0 0
Neighs:    0 ave 0 max 0 min
Histogram: 1 0 0 0 0 0 0 0 0 0

Total # of neighbors = 0
Ave neighs/atom = 0
Ave special neighs/atom = 0
Neighbor list builds = 0
Dangerous builds = 0
  next a
  jump SELF loop
  displace_atoms atom2 move 0 -0.02 0
  run   1000
Neighbor list info ...
  update every 1 steps, delay 10 steps, check yes
  max neighbors/atom: 2000, page size: 100000
  master list distance cutoff = 2.8
  ghost atom cutoff = 2.8
  binsize = 1.4, bins = 29 29 29
  7 neighbor lists, perpetual/occasional/extra = 6 1 0
  (1) pair lj/expand/twopiece, perpetual, skip from (7)
      attributes: half, newton on
      pair build: skip
      stencil: none
      bin: none
  (2) pair lj/twopiece, perpetual, skip from (7)
      attributes: half, newton on
      pair build: skip
      stencil: none
      bin: none
  (3) pair soft/shift, perpetual, skip from (7)
      attributes: half, newton on
      pair build: skip
      stencil: none
      bin: none
  (4) pair zero, perpetual, skip from (7)
      attributes: half, newton on
      pair build: skip
      stencil: none
      bin: none
  (5) pair morse, perpetual, skip from (7)
      attributes: half, newton on
      pair build: skip
      stencil: none
      bin: none
  (6) compute pair/local, occasional, copy from (7)
      attributes: half, newton on
      pair build: copy
      stencil: none
      bin: none
  (7) neighbor class addition, perpetual
      attributes: half, newton on
      pair build: half/bin/newton
      stencil: half/bin/3d/newton
      bin: standard
Per MPI rank memory allocation (min/avg/max) = 9.833 | 9.833 | 9.833 Mbytes
Step Temp E_pair E_mol TotEng Press 
   25000            0 -0.0093045521            0 -0.0093045521 -5.8099241e-07 
   25200            0 -0.0093045521            0 -0.0093045521 -5.8099241e-07 
   25400            0 -0.0093045521            0 -0.0093045521 -5.8099241e-07 
   25600            0 -0.0093045521            0 -0.0093045521 -5.8099241e-07 
   25800            0 -0.0093045521            0 -0.0093045521 -5.8099241e-07 
   26000            0 -0.0093045521            0 -0.0093045521 -5.8099241e-07 
Loop time of 0.019028 on 1 procs for 1000 steps with 2 atoms

Performance: 4540676.895 tau/day, 52554.131 timesteps/s
[...]
---------------------------------------------------------------
Pair    | 0.001815   | 0.001815   | 0.001815   |   0.0 | 11.22
Bond    | 0.001451   | 0.001451   | 0.001451   |   0.0 |  8.97
Neigh   | 0          | 0          | 0          |   0.0 |  0.00
Comm    | 0.00262    | 0.00262    | 0.00262    |   0.0 | 16.20
Output  | 0.003276   | 0.003276   | 0.003276   |   0.0 | 20.26
Modify  | 0.002609   | 0.002609   | 0.002609   |   0.0 | 16.13
Other   |            | 0.004401   |            |       | 27.21

Nlocal:    2 ave 2 max 2 min
Histogram: 1 0 0 0 0 0 0 0 0 0
Nghost:    0 ave 0 max 0 min
Histogram: 1 0 0 0 0 0 0 0 0 0
Neighs:    0 ave 0 max 0 min
Histogram: 1 0 0 0 0 0 0 0 0 0

Total # of neighbors = 0
Ave neighs/atom = 0
Ave special neighs/atom = 0
Neighbor list builds = 0
Dangerous builds = 0
  next a
  jump SELF loop
  displace_atoms atom2 move 0 -0.02 0
  run   1000
Neighbor list info ...
  update every 1 steps, delay 10 steps, check yes
  max neighbors/atom: 2000, page size: 100000
  master list distance cutoff = 2.8
  ghost atom cutoff = 2.8
  binsize = 1.4, bins = 29 29 29
  7 neighbor lists, perpetual/occasional/extra = 6 1 0
  (1) pair lj/expand/twopiece, perpetual, skip from (7)
      attributes: half, newton on
      pair build: skip
      stencil: none
      bin: none
  (2) pair lj/twopiece, perpetual, skip from (7)
      attributes: half, newton on
      pair build: skip
      stencil: none
      bin: none
  (3) pair soft/shift, perpetual, skip from (7)
      attributes: half, newton on
      pair build: skip
      stencil: none
      bin: none
  (4) pair zero, perpetual, skip from (7)
      attributes: half, newton on
      pair build: skip
      stencil: none
      bin: none
  (5) pair morse, perpetual, skip from (7)
      attributes: half, newton on
      pair build: skip
      stencil: none
      bin: none
  (6) compute pair/local, occasional, copy from (7)
      attributes: half, newton on
      pair build: copy
      stencil: none
      bin: none
  (7) neighbor class addition, perpetual
      attributes: half, newton on
      pair build: half/bin/newton
      stencil: half/bin/3d/newton
      bin: standard
Per MPI rank memory allocation (min/avg/max) = 9.833 | 9.833 | 9.833 Mbytes
Step Temp E_pair E_mol TotEng Press 
  205000            0 -0.0024408102            0 -0.0024408102 -1.5251338e-07 
  205200            0 -0.0024408102            0 -0.0024408102 -1.5251338e-07 
  205400            0 -0.0024408102            0 -0.0024408102 -1.5251338e-07 
  205600            0 -0.0024408102            0 -0.0024408102 -1.5251338e-07 
  205800            0 -0.0024408102            0 -0.0024408102 -1.5251338e-07 
  206000            0 -0.0024408102            0 -0.0024408102 -1.5251338e-07 
Loop time of 0.016122 on 1 procs for 1000 steps with 2 atoms

Performance: 5359136.583 tau/day, 62027.044 timesteps/s
0.0% CPU use with 1 MPI tasks x 1 OpenMP threads

MPI task timing breakdown:
Section |  min time  |  avg time  |  max time  |%varavg| %total
---------------------------------------------------------------
Pair    | 0.001859   | 0.001859   | 0.001859   |   0.0 | 11.53
Bond    | 0.001402   | 0.001402   | 0.001402   |   0.0 |  8.70
Neigh   | 0          | 0          | 0          |   0.0 |  0.00
Comm    | 0.002841   | 0.002841   | 0.002841   |   0.0 | 17.62
Output  | 0.003011   | 0.003011   | 0.003011   |   0.0 | 18.68
Modify  | 0.002708   | 0.002708   | 0.002708   |   0.0 | 16.80
Other   |            | 0.004301   |            |       | 26.68

Nlocal:    2 ave 2 max 2 min
Histogram: 1 0 0 0 0 0 0 0 0 0
Nghost:    0 ave 0 max 0 min
Histogram: 1 0 0 0 0 0 0 0 0 0
Neighs:    0 ave 0 max 0 min
Histogram: 1 0 0 0 0 0 0 0 0 0

Total # of neighbors = 0
Ave neighs/atom = 0
Ave special neighs/atom = 0
Neighbor list builds = 0
Dangerous builds = 0
  next a
  jump SELF loop
  displace_atoms atom2 move 0 -0.02 0
  run   1000
Neighbor list info ...
  update every 1 steps, delay 10 steps, check yes
  max neighbors/atom: 2000, page size: 100000
  master list distance cutoff = 2.8
  ghost atom cutoff = 2.8
  binsize = 1.4, bins = 29 29 29
  7 neighbor lists, perpetual/occasional/extra = 6 1 0
  (1) pair lj/expand/twopiece, perpetual, skip from (7)
      attributes: half, newton on
      pair build: skip
      stencil: none
      bin: none
  (2) pair lj/twopiece, perpetual, skip from (7)
      attributes: half, newton on
      pair build: skip
      stencil: none
      bin: none
  (3) pair soft/shift, perpetual, skip from (7)
      attributes: half, newton on
      pair build: skip
      stencil: none
      bin: none
  (4) pair zero, perpetual, skip from (7)
      attributes: half, newton on
      pair build: skip
      stencil: none
      bin: none
  (5) pair morse, perpetual, skip from (7)
      attributes: half, newton on
      pair build: skip
      stencil: none
      bin: none
  (6) compute pair/local, occasional, copy from (7)
      attributes: half, newton on
      pair build: copy
      stencil: none
      bin: none
  (7) neighbor class addition, perpetual
      attributes: half, newton on
      pair build: half/bin/newton
      stencil: half/bin/3d/newton
      bin: standard
Per MPI rank memory allocation (min/avg/max) = 9.833 | 9.833 | 9.833 Mbytes
Step Temp E_pair E_mol TotEng Press 
  206000            0 -0.0022993862            0 -0.0022993862 -1.4367858e-07 
  206200            0 -0.0022993862            0 -0.0022993862 -1.4367858e-07 
  206400            0 -0.0022993862            0 -0.0022993862 -1.4367858e-07 
  206600            0 -0.0022993862            0 -0.0022993862 -1.4367858e-07 
  206800            0 -0.0022993862            0 -0.0022993862 -1.4367858e-07 
  207000            0 -0.0022993862            0 -0.0022993862 -1.4367858e-07 
Loop time of 0.014434 on 1 procs for 1000 steps with 2 atoms

Performance: 5985866.699 tau/day, 69280.865 timesteps/s
0.0% CPU use with 1 MPI tasks x 1 OpenMP threads

MPI task timing breakdown:
Section |  min time  |  avg time  |  max time  |%varavg| %total
---------------------------------------------------------------
Pair    | 0.001636   | 0.001636   | 0.001636   |   0.0 | 11.33
Bond    | 0.001394   | 0.001394   | 0.001394   |   0.0 |  9.66
Neigh   | 0          | 0          | 0          |   0.0 |  0.00
Comm    | 0.002491   | 0.002491   | 0.002491   |   0.0 | 17.26
Output  | 0.002327   | 0.002327   | 0.002327   |   0.0 | 16.12
Modify  | 0.002516   | 0.002516   | 0.002516   |   0.0 | 17.43
Other   |            | 0.00407    |            |       | 28.20

Nlocal:    2 ave 2 max 2 min
Histogram: 1 0 0 0 0 0 0 0 0 0
Nghost:    0 ave 0 max 0 min
Histogram: 1 0 0 0 0 0 0 0 0 0
Neighs:    0 ave 0 max 0 min
Histogram: 1 0 0 0 0 0 0 0 0 0

Total # of neighbors = 0
Ave neighs/atom = 0
Ave special neighs/atom = 0
Neighbor list builds = 0
Dangerous builds = 0
  next a
  jump SELF loop
  displace_atoms atom2 move 0 -0.02 0
  run   1000
Neighbor list info ...
  update every 1 steps, delay 10 steps, check yes
  max neighbors/atom: 2000, page size: 100000
  master list distance cutoff = 2.8
  ghost atom cutoff = 2.8
  binsize = 1.4, bins = 29 29 29
  7 neighbor lists, perpetual/occasional/extra = 6 1 0
  (1) pair lj/expand/twopiece, perpetual, skip from (7)
      attributes: half, newton on
      pair build: skip
      stencil: none
      bin: none
  (2) pair lj/twopiece, perpetual, skip from (7)
      attributes: half, newton on
      pair build: skip
      stencil: none
      bin: none
  (3) pair soft/shift, perpetual, skip from (7)
      attributes: half, newton on
      pair build: skip
      stencil: none
      bin: none
  (4) pair zero, perpetual, skip from (7)
      attributes: half, newton on
      pair build: skip
      stencil: none
      bin: none
  (5) pair morse, perpetual, skip from (7)
      attributes: half, newton on
      pair build: skip
      stencil: none
      bin: none
  (6) compute pair/local, occasional, copy from (7)
      attributes: half, newton on
      pair build: copy
      stencil: none
      bin: none
  (7) neighbor class addition, perpetual
      attributes: half, newton on
      pair build: half/bin/newton
      stencil: half/bin/3d/newton
      bin: standard
Per MPI rank memory allocation (min/avg/max) = 9.833 | 9.833 | 9.833 Mbytes
Step Temp E_pair E_mol TotEng Press 
  207000            0 -0.0021674289            0 -0.0021674289 -1.3543493e-07 
  207200            0 -0.0021674289            0 -0.0021674289 -1.3543493e-07 
  207400            0 -0.0021674289            0 -0.0021674289 -1.3543493e-07 
  207600            0 -0.0021674289            0 -0.0021674289 -1.3543493e-07 
  207800            0 -0.0021674289            0 -0.0021674289 -1.3543493e-07 
  208000            0 -0.0021674289            0 -0.0021674289 -1.3543493e-07 
Loop time of 0.01362 on 1 procs for 1000 steps with 2 atoms

Performance: 6343612.343 tau/day, 73421.439 timesteps/s
0.0% CPU use with 1 MPI tasks x 1 OpenMP threads

MPI task timing breakdown:
Section |  min time  |  avg time  |  max time  |%varavg| %total
---------------------------------------------------------------
Pair    | 0.001644   | 0.001644   | 0.001644   |   0.0 | 12.07
Bond    | 0.001243   | 0.001243   | 0.001243   |   0.0 |  9.13
Neigh   | 0          | 0          | 0          |   0.0 |  0.00
Comm    | 0.002276   | 0.002276   | 0.002276   |   0.0 | 16.71
Output  | 0.002333   | 0.002333   | 0.002333   |   0.0 | 17.13
Modify  | 0.002329   | 0.002329   | 0.002329   |   0.0 | 17.10
Other   |            | 0.003795   |            |       | 27.86

Nlocal:    2 ave 2 max 2 min
Histogram: 1 0 0 0 0 0 0 0 0 0
Nghost:    0 ave 0 max 0 min
Histogram: 1 0 0 0 0 0 0 0 0 0
Neighs:    0 ave 0 max 0 min
Histogram: 1 0 0 0 0 0 0 0 0 0

Total # of neighbors = 0
Ave neighs/atom = 0
Ave special neighs/atom = 0
Neighbor list builds = 0
Dangerous builds = 0
  next a
  jump SELF loop
  displace_atoms atom2 move 0 -0.02 0
  run   1000
Neighbor list info ...
  update every 1 steps, delay 10 steps, check yes
  max neighbors/atom: 2000, page size: 100000
  master list distance cutoff = 2.8
  ghost atom cutoff = 2.8
  binsize = 1.4, bins = 29 29 29
  7 neighbor lists, perpetual/occasional/extra = 6 1 0
  (1) pair lj/expand/twopiece, perpetual, skip from (7)
      attributes: half, newton on
      pair build: skip
      stencil: none
      bin: none
  (2) pair lj/twopiece, perpetual, skip from (7)
      attributes: half, newton on
      pair build: skip
      stencil: none
      bin: none
  (3) pair soft/shift, perpetual, skip from (7)
      attributes: half, newton on
      pair build: skip
      stencil: none
      bin: none
  (4) pair zero, perpetual, skip from (7)
      attributes: half, newton on
      pair build: skip
      stencil: none
      bin: none
  (5) pair morse, perpetual, skip from (7)
      attributes: half, newton on
      pair build: skip
      stencil: none
      bin: none
  (6) compute pair/local, occasional, copy from (7)
      attributes: half, newton on
      pair build: copy
      stencil: none
      bin: none
  (7) neighbor class addition, perpetual
      attributes: half, newton on
      pair build: half/bin/newton
      stencil: half/bin/3d/newton
      bin: standard
Per MPI rank memory allocation (min/avg/max) = 9.833 | 9.833 | 9.833 Mbytes
Step Temp E_pair E_mol TotEng Press 
  208000            0 -0.0020442212            0 -0.0020442212 -1.277377e-07 
  208200            0 -0.0020442212            0 -0.0020442212 -1.277377e-07 
  208400            0 -0.0020442212            0 -0.0020442212 -1.277377e-07 
  208600            0 -0.0020442212            0 -0.0020442212 -1.277377e-07 
  208800            0 -0.0020442212            0 -0.0020442212 -1.277377e-07 
  209000            0 -0.0020442212            0 -0.0020442212 -1.277377e-07 
Loop time of 0.026641 on 1 procs for 1000 steps with 2 atoms

Performance: 3243121.504 tau/day, 37536.129 timesteps/s
58.7% CPU use with 1 MPI tasks x 1 OpenMP threads

MPI task timing breakdown:
Section |  min time  |  avg time  |  max time  |%varavg| %total
---------------------------------------------------------------
Pair    | 0.003732   | 0.003732   | 0.003732   |   0.0 | 14.01
Bond    | 0.001737   | 0.001737   | 0.001737   |   0.0 |  6.52
Neigh   | 0          | 0          | 0          |   0.0 |  0.00
Comm    | 0.003715   | 0.003715   | 0.003715   |   0.0 | 13.94
Output  | 0.008459   | 0.008459   | 0.008459   |   0.0 | 31.75
Modify  | 0.003406   | 0.003406   | 0.003406   |   0.0 | 12.78
Other   |            | 0.005592   |            |       | 20.99

Nlocal:    2 ave 2 max 2 min
Histogram: 1 0 0 0 0 0 0 0 0 0
Nghost:    0 ave 0 max 0 min
Histogram: 1 0 0 0 0 0 0 0 0 0
Neighs:    0 ave 0 max 0 min
Histogram: 1 0 0 0 0 0 0 0 0 0

Total # of neighbors = 0
Ave neighs/atom = 0
Ave special neighs/atom = 0
Neighbor list builds = 0
Dangerous builds = 0
  next a
  jump SELF loop
  displace_atoms atom2 move 0 -0.02 0
  run   1000
Neighbor list info ...
  update every 1 steps, delay 10 steps, check yes
  max neighbors/atom: 2000, page size: 100000
  master list distance cutoff = 2.8
  ghost atom cutoff = 2.8
  binsize = 1.4, bins = 29 29 29
  7 neighbor lists, perpetual/occasional/extra = 6 1 0
  (1) pair lj/expand/twopiece, perpetual, skip from (7)
      attributes: half, newton on
      pair build: skip
      stencil: none
      bin: none
  (2) pair lj/twopiece, perpetual, skip from (7)
      attributes: half, newton on
      pair build: skip
      stencil: none
      bin: none
  (3) pair soft/shift, perpetual, skip from (7)
      attributes: half, newton on
      pair build: skip
      stencil: none
      bin: none
  (4) pair zero, perpetual, skip from (7)
      attributes: half, newton on
      pair build: skip
      stencil: none
      bin: none
  (5) pair morse, perpetual, skip from (7)
      attributes: half, newton on
      pair build: skip
      stencil: none
      bin: none
  (6) compute pair/local, occasional, copy from (7)
      attributes: half, newton on
      pair build: copy
      stencil: none
      bin: none
  (7) neighbor class addition, perpetual
      attributes: half, newton on
      pair build: half/bin/newton
      stencil: half/bin/3d/newton
      bin: standard
Per MPI rank memory allocation (min/avg/max) = 9.833 | 9.833 | 9.833 Mbytes
Step Temp E_pair E_mol TotEng Press 
  209000            0 -0.0019291065            0 -0.0019291065 -1.2054589e-07 
  209200            0 -0.0019291065            0 -0.0019291065 -1.2054589e-07 
  209400            0 -0.0019291065            0 -0.0019291065 -1.2054589e-07 
  209600            0 -0.0019291065            0 -0.0019291065 -1.2054589e-07 
  209800            0 -0.0019291065            0 -0.0019291065 -1.2054589e-07 
  210000            0 -0.0019291065            0 -0.0019291065 -1.2054589e-07 
Loop time of 0.016447 on 1 procs for 1000 steps with 2 atoms

Performance: 5253237.663 tau/day, 60801.362 timesteps/s
95.0% CPU use with 1 MPI tasks x 1 OpenMP threads

MPI task timing breakdown:
Section |  min time  |  avg time  |  max time  |%varavg| %total
---------------------------------------------------------------
Pair    | 0.001954   | 0.001954   | 0.001954   |   0.0 | 11.88
Bond    | 0.001469   | 0.001469   | 0.001469   |   0.0 |  8.93
Neigh   | 0          | 0          | 0          |   0.0 |  0.00
Comm    | 0.002841   | 0.002841   | 0.002841   |   0.0 | 17.27
Output  | 0.00281    | 0.00281    | 0.00281    |   0.0 | 17.09
Modify  | 0.002736   | 0.002736   | 0.002736   |   0.0 | 16.64
Other   |            | 0.004637   |            |       | 28.19

Nlocal:    2 ave 2 max 2 min
Histogram: 1 0 0 0 0 0 0 0 0 0
Nghost:    0 ave 0 max 0 min
Histogram: 1 0 0 0 0 0 0 0 0 0
Neighs:    0 ave 0 max 0 min
Histogram: 1 0 0 0 0 0 0 0 0 0

Total # of neighbors = 0
Ave neighs/atom = 0
Ave special neighs/atom = 0
Neighbor list builds = 0
Dangerous builds = 0
  next a
  jump SELF loop
  displace_atoms atom2 move 0 -0.02 0
  run   1000
Neighbor list info ...
  update every 1 steps, delay 10 steps, check yes
  max neighbors/atom: 2000, page size: 100000
  master list distance cutoff = 2.8
  ghost atom cutoff = 2.8
  binsize = 1.4, bins = 29 29 29
  7 neighbor lists, perpetual/occasional/extra = 6 1 0
  (1) pair lj/expand/twopiece, perpetual, skip from (7)
      attributes: half, newton on
      pair build: skip
      stencil: none
      bin: none
  (2) pair lj/twopiece, perpetual, skip from (7)
      attributes: half, newton on
      pair build: skip
      stencil: none
      bin: none
  (3) pair soft/shift, perpetual, skip from (7)
      attributes: half, newton on
      pair build: skip
      stencil: none
      bin: none
  (4) pair zero, perpetual, skip from (7)
      attributes: half, newton on
      pair build: skip
      stencil: none
      bin: none
  (5) pair morse, perpetual, skip from (7)
      attributes: half, newton on
      pair build: skip
      stencil: none
      bin: none
  (6) compute pair/local, occasional, copy from (7)
      attributes: half, newton on
      pair build: copy
      stencil: none
      bin: none
  (7) neighbor class addition, perpetual
      attributes: half, newton on
      pair build: half/bin/newton
      stencil: half/bin/3d/newton
      bin: standard
Per MPI rank memory allocation (min/avg/max) = 9.833 | 9.833 | 9.833 Mbytes
Step Temp E_pair E_mol TotEng Press 
  210000            0 -0.001821483            0 -0.001821483 -1.1382195e-07 
  210200            0 -0.001821483            0 -0.001821483 -1.1382195e-07 
  210400            0 -0.001821483            0 -0.001821483 -1.1382195e-07 
  210600            0 -0.001821483            0 -0.001821483 -1.1382195e-07 
  210800            0 -0.001821483            0 -0.001821483 -1.1382195e-07 
  211000            0 -0.001821483            0 -0.001821483 -1.1382195e-07 
Loop time of 0.019044 on 1 procs for 1000 steps with 2 atoms

Performance: 4536862.000 tau/day, 52509.977 timesteps/s
82.0% CPU use with 1 MPI tasks x 1 OpenMP threads

MPI task timing breakdown:
Section |  min time  |  avg time  |  max time  |%varavg| %total
---------------------------------------------------------------
Pair    | 0.001976   | 0.001976   | 0.001976   |   0.0 | 10.38
Bond    | 0.001715   | 0.001715   | 0.001715   |   0.0 |  9.01
Neigh   | 0          | 0          | 0          |   0.0 |  0.00
Comm    | 0.00327    | 0.00327    | 0.00327    |   0.0 | 17.17
Output  | 0.00357    | 0.00357    | 0.00357    |   0.0 | 18.75
Modify  | 0.002846   | 0.002846   | 0.002846   |   0.0 | 14.94
Other   |            | 0.005667   |            |       | 29.76

Nlocal:    2 ave 2 max 2 min
Histogram: 1 0 0 0 0 0 0 0 0 0
Nghost:    0 ave 0 max 0 min
Histogram: 1 0 0 0 0 0 0 0 0 0
Neighs:    0 ave 0 max 0 min
Histogram: 1 0 0 0 0 0 0 0 0 0

Total # of neighbors = 0
Ave neighs/atom = 0
Ave special neighs/atom = 0
Neighbor list builds = 0
Dangerous builds = 0
  next a
  jump SELF loop


# ----------------- Run Section -----------------

# The lines above define the system you want to simulate.
# What you do next is up to you.
# Typically a user would minimize and equilibrate
# the system using commands similar to the following:
#  ----   examples   ----
#
#  -- minimize --
# minimize 1.0e-5 1.0e-7 1000 10000
# (Note: Some fixes, for example "shake", interfere with the minimize command,
#        You can use the "unfix" command to disable them before minimization.)
#  -- declare time step for normal MD --
# timestep 1.0
#  -- run at constant pressure (Nose-Hoover)--
# fix   fxnpt all npt temp 300.0 300.0 100.0 iso 1.0 1.0 1000.0 drag 1.0
#  -- ALTERNATELY, run at constant volume (Nose-Hoover) --
# fix   fxnvt all nvt temp 300.0 300.0 500.0 tchain 1
#  -- ALTERNATELY, run at constant volume using Langevin dynamics. --
#  -- (This is good for sparse CG polymers in implicit solvent.)   --
# fix fxLAN all langevin 300.0 300.0 5000 48279
# fix fxNVE all nve  #(<--needed by fix langevin)
#  -- Now, finally run the simulation --
# run   50000
#  ---- (end of examples) ----

Total wall time: 0:00:06
