LAMMPS (7 Aug 2019)
OMP_NUM_THREADS environment is not set. Defaulting to 1 thread. (src/comm.cpp:93)
  using 1 OpenMP thread(s) per MPI task


# ----------------- Init Section -----------------

include "system.in.init"
        units lj
        atom_style angle
        pair_style hybrid lj/expand/twopiece 2.5 lj/twopiece 2.5 soft/shift 0.3 zero 1 morse 2.5
        bond_style hybrid harmonic
        angle_style hybrid harmonic
        special_bonds lj 0.0 0.0 0.0


# ----------------- Atom Definition Section -----------------

read_data "system.data"
  orthogonal box = (-20 -20 -20) to (20 20 20)
  1 by 1 by 1 MPI processor grid
  reading atoms ...
  2 atoms
  0 = max # of 1-2 neighbors
  0 = max # of 1-3 neighbors
  0 = max # of 1-4 neighbors
  1 = max # of special neighbors
  special bonds CPU = 1.78814e-05 secs
  read_data CPU = 0.000290871 secs

# ----------------- Settings Section -----------------

include "system.in.settings"
       pair_coeff 2 2 lj/expand/twopiece 0.5 1 0.5 0.
        pair_coeff 3 3 lj/twopiece 5.0 1 0.5
        pair_coeff 4 4 lj/twopiece 1.0 1 0.5
        pair_coeff 3 4 lj/twopiece 1.0 1 0.5
        pair_coeff 2 3 lj/expand/twopiece 0.5 1 0.5 0.
        pair_coeff 2 4 lj/expand/twopiece 0.5 1 0.5 0.

        pair_coeff 5 5 soft/shift 1.5 0.2
pair_coeff 2 5 zero
pair_coeff 1 5 zero
pair_coeff 3 5 zero
pair_coeff 4 5 zero

        pair_coeff 8 8 lj/expand/twopiece 0.5 1 0.5 0.
pair_coeff 5 8 lj/expand/twopiece 0.5 1 0.5 0.
pair_coeff 2 8 zero
pair_coeff 1 8 morse 100 4 0.5
pair_coeff 3 8 zero
pair_coeff 4 8 zero
pair_coeff 6 8 zero
pair_coeff 7 8 zero

        pair_coeff 6 6 soft/shift 1.5 0.2
pair_coeff 2 6 zero
pair_coeff 1 6 zero
pair_coeff 3 6 zero
pair_coeff 4 6 zero
        pair_coeff 6 7 soft/shift 1.5 0.2

        pair_coeff 7 7 soft/shift 1.5 0.2
pair_coeff 2 7 zero
pair_coeff 1 7 zero
pair_coeff 3 7 zero
pair_coeff 4 7 zero

        pair_coeff 1 1 lj/expand/twopiece 0.5 1 0.8 0.
        pair_coeff 1 2 lj/expand/twopiece 0.5 1 0.8 0.
        pair_coeff 1 3 lj/expand/twopiece 0.5 1 0.8 0.
        pair_coeff 1 4 lj/expand/twopiece 0.5 1 0.8 0.


        bond_coeff 1 harmonic 1000 0.4
        bond_coeff 2 harmonic 1000 0.4
        bond_coeff 3 harmonic 1000 0.15

        angle_coeff 1 harmonic 20 180
        angle_coeff 2 harmonic 20 180
        angle_coeff 3 harmonic 20 180
        angle_coeff 4 harmonic 20 180


# ----------------- Run Section -----------------

include "system.in.run"
  dump dxyz all atom 1000 poly.lammpstrj
  group atom1 id 1
1 atoms in group atom1
  group atom2 id 2
1 atoms in group atom2
  compute pair_data all pair/local dist eng

  fix ffreeze all setforce 0 0 0
  dump 1 all local 10 pair_energy.data index c_pair_data[1] c_pair_data[2]

  thermo 200
  timestep 0.001
  run   1000
Neighbor list info ...
  update every 1 steps, delay 10 steps, check yes
  max neighbors/atom: 2000, page size: 100000
  master list distance cutoff = 2.8
  ghost atom cutoff = 2.8
  binsize = 1.4, bins = 29 29 29
  7 neighbor lists, perpetual/occasional/extra = 6 1 0
  (1) pair lj/expand/twopiece, perpetual, skip from (7)
      attributes: half, newton on
      pair build: skip
      stencil: none
      bin: none
  (2) pair lj/twopiece, perpetual, skip from (7)
      attributes: half, newton on
      pair build: skip
      stencil: none
      bin: none
  (3) pair soft/shift, perpetual, skip from (7)
      attributes: half, newton on
      pair build: skip
      stencil: none
      bin: none
  (4) pair zero, perpetual, skip from (7)
      attributes: half, newton on
      pair build: skip
      stencil: none
      bin: none
  (5) pair morse, perpetual, skip from (7)
      attributes: half, newton on
      pair build: skip
      stencil: none
      bin: none
  (6) compute pair/local, occasional, copy from (7)
      attributes: half, newton on
      pair build: copy
      stencil: none
      bin: none
  (7) neighbor class addition, perpetual
      attributes: half, newton on
      pair build: half/bin/newton
      stencil: half/bin/3d/newton
      bin: standard
Per MPI rank memory allocation (min/avg/max) = 8.714 | 8.714 | 8.714 Mbytes
Step Temp E_pair E_mol TotEng Press 
       0            0 -0.001821483            0 -0.001821483 -1.1382195e-07 
     200            0 -0.001821483            0 -0.001821483 -1.1382195e-07 
     400            0 -0.001821483            0 -0.001821483 -1.1382195e-07 
     600            0 -0.001821483            0 -0.001821483 -1.1382195e-07 
     800            0 -0.001821483            0 -0.001821483 -1.1382195e-07 
    1000            0 -0.001821483            0 -0.001821483 -1.1382195e-07 
Loop time of 0.00514483 on 1 procs for 1000 steps with 2 atoms

Performance: 16793543.056 tau/day, 194369.711 timesteps/s
0.0% CPU use with 1 MPI tasks x 1 OpenMP threads

MPI task timing breakdown:
Section |  min time  |  avg time  |  max time  |%varavg| %total
---------------------------------------------------------------
Pair    | 0.00067973 | 0.00067973 | 0.00067973 |   0.0 | 13.21
Bond    | 0.00039363 | 0.00039363 | 0.00039363 |   0.0 |  7.65
Neigh   | 0          | 0          | 0          |   0.0 |  0.00
Comm    | 0.00069761 | 0.00069761 | 0.00069761 |   0.0 | 13.56
Output  | 0.0018511  | 0.0018511  | 0.0018511  |   0.0 | 35.98
Modify  | 0.00059772 | 0.00059772 | 0.00059772 |   0.0 | 11.62
Other   |            | 0.0009251  |            |       | 17.98

Nlocal:    2 ave 2 max 2 min
Histogram: 1 0 0 0 0 0 0 0 0 0
Nghost:    0 ave 0 max 0 min
Histogram: 1 0 0 0 0 0 0 0 0 0
Neighs:    0 ave 0 max 0 min
Histogram: 1 0 0 0 0 0 0 0 0 0

Total # of neighbors = 0
Ave neighs/atom = 0
Ave special neighs/atom = 0
Neighbor list builds = 0
Dangerous builds = 0
  variable a loop 210
  label loop
  displace_atoms atom2 move 0 -0.02 0
  run   1000
Neighbor list info ...
  update every 1 steps, delay 10 steps, check yes
  max neighbors/atom: 2000, page size: 100000
  master list distance cutoff = 2.8
  ghost atom cutoff = 2.8
  binsize = 1.4, bins = 29 29 29
  7 neighbor lists, perpetual/occasional/extra = 6 1 0
  (1) pair lj/expand/twopiece, perpetual, skip from (7)
      attributes: half, newton on
      pair build: skip
      stencil: none
      bin: none
  (2) pair lj/twopiece, perpetual, skip from (7)
      attributes: half, newton on
      pair build: skip
      stencil: none
      bin: none
  (3) pair soft/shift, perpetual, skip from (7)
      attributes: half, newton on
      pair build: skip
      stencil: none
      bin: none
  (4) pair zero, perpetual, skip from (7)
      attributes: half, newton on
      pair build: skip
      stencil: none
      bin: none
  (5) pair morse, perpetual, skip from (7)
      attributes: half, newton on
      pair build: skip
      stencil: none
      bin: none
  (6) compute pair/local, occasional, copy from (7)
      attributes: half, newton on
      pair build: copy
      stencil: none
      bin: none
  (7) neighbor class addition, perpetual
      attributes: half, newton on
      pair build: half/bin/newton
      stencil: half/bin/3d/newton
      bin: standard
Per MPI rank memory allocation (min/avg/max) = 9.833 | 9.833 | 9.833 Mbytes
Step Temp E_pair E_mol TotEng Press 
    1000            0 -0.0019291065            0 -0.0019291065 -1.2054589e-07 
    1200            0 -0.0019291065            0 -0.0019291065 -1.2054589e-07 
    1400            0 -0.0019291065            0 -0.0019291065 -1.2054589e-07 
    1600            0 -0.0019291065            0 -0.0019291065 -1.2054589e-07 
    1800            0 -0.0019291065            0 -0.0019291065 -1.2054589e-07 
    2000            0 -0.0019291065            0 -0.0019291065 -1.2054589e-07 
Loop time of 0.00573587 on 1 procs for 1000 steps with 2 atoms

Performance: 15063091.928 tau/day, 174341.342 timesteps/s
0.0% CPU use with 1 MPI tasks x 1 OpenMP threads

MPI task timing breakdown:
Section |  min time  |  avg time  |  max time  |%varavg| %total
---------------------------------------------------------------
Pair    | 0.00078011 | 0.00078011 | 0.00078011 |   0.0 | 13.60
Bond    | 0.0004189  | 0.0004189  | 0.0004189  |   0.0 |  7.30
Neigh   | 0          | 0          | 0          |   0.0 |  0.00
Comm    | 0.00068951 | 0.00068951 | 0.00068951 |   0.0 | 12.02
Output  | 0.0022194  | 0.0022194  | 0.0022194  |   0.0 | 38.69
Modify  | 0.00065708 | 0.00065708 | 0.00065708 |   0.0 | 11.46
Other   |            | 0.0009708  |            |       | 16.93

Nlocal:    2 ave 2 max 2 min
Histogram: 1 0 0 0 0 0 0 0 0 0
Nghost:    0 ave 0 max 0 min
Histogram: 1 0 0 0 0 0 0 0 0 0
Neighs:    0 ave 0 max 0 min
Histogram: 1 0 0 0 0 0 0 0 0 0

Total # of neighbors = 0
Ave neighs/atom = 0
Ave special neighs/atom = 0
Neighbor list builds = 0
Dangerous builds = 0
  next a
  jump SELF loop
  displace_atoms atom2 move 0 -0.02 0
  run   1000
Neighbor list info ...
  update every 1 steps, delay 10 steps, check yes
  max neighbors/atom: 2000, page size: 100000
  master list distance cutoff = 2.8
  ghost atom cutoff = 2.8
  binsize = 1.4, bins = 29 29 29
  7 neighbor lists, perpetual/occasional/extra = 6 1 0
  (1) pair lj/expand/twopiece, perpetual, skip from (7)
      attributes: half, newton on
      pair build: skip
      stencil: none
      bin: none
  (2) pair lj/twopiece, perpetual, skip from (7)
      attributes: half, newton on
      pair build: skip
      stencil: none
      bin: none
  (3) pair soft/shift, perpetual, skip from (7)
      attributes: half, newton on
      pair build: skip
      stencil: none
      bin: none
  (4) pair zero, perpetual, skip from (7)
      attributes: half, newton on
      pair build: skip
      stencil: none
      bin: none
  (5) pair morse, perpetual, skip from (7)
      attributes: half, newton on
      pair build: skip
      stencil: none
      bin: none
  (6) compute pair/local, occasional, copy from (7)
      attributes: half, newton on
      pair build: copy
      stencil: none
      bin: none
  (7) neighbor class addition, perpetual
      attributes: half, newton on
      pair build: half/bin/newton
      stencil: half/bin/3d/newton
      bin: standard
Per MPI rank memory allocation (min/avg/max) = 9.833 | 9.833 | 9.833 Mbytes
Step Temp E_pair E_mol TotEng Press 
    2000            0 -0.0020442212            0 -0.0020442212 -1.277377e-07 
    2200            0 -0.0020442212            0 -0.0020442212 -1.277377e-07 
    2400            0 -0.0020442212            0 -0.0020442212 -1.277377e-07 
    2600            0 -0.0020442212            0 -0.0020442212 -1.277377e-07 
    2800            0 -0.0020442212            0 -0.0020442212 -1.277377e-07 
    3000            0 -0.0020442212            0 -0.0020442212 -1.277377e-07 
Loop time of 0.00553012 on 1 procs for 1000 steps with 2 atoms

Performance: 15623533.762 tau/day, 180827.937 timesteps/s
282.5% CPU use with 1 MPI tasks x 1 OpenMP threads

MPI task timing breakdown:
Section |  min time  |  avg time  |  max time  |%varavg| %total
---------------------------------------------------------------
Pair    | 0.00079465 | 0.00079465 | 0.00079465 |   0.0 | 14.37
Bond    | 0.00039268 | 0.00039268 | 0.00039268 |   0.0 |  7.10
Neigh   | 0          | 0          | 0          |   0.0 |  0.00
Comm    | 0.00068569 | 0.00068569 | 0.00068569 |   0.0 | 12.40
Output  | 0.0019836  | 0.0019836  | 0.0019836  |   0.0 | 35.87
Modify  | 0.00068831 | 0.00068831 | 0.00068831 |   0.0 | 12.45
Other   |            | 0.0009851  |            |       | 17.81

Nlocal:    2 ave 2 max 2 min
Histogram: 1 0 0 0 0 0 0 0 0 0
Nghost:    0 ave 0 max 0 min
Histogram: 1 0 0 0 0 0 0 0 0 0
Neighs:    0 ave 0 max 0 min
Histogram: 1 0 0 0 0 0 0 0 0 0

Total # of neighbors = 0
Ave neighs/atom = 0
Ave special neighs/atom = 0
Neighbor list builds = 0
Dangerous builds = 0
  next a
  jump SELF loop
  displace_atoms atom2 move 0 -0.02 0
  run   1000
Neighbor list info ...
  update every 1 steps, delay 10 steps, check yes
  max neighbors/atom: 2000, page size: 100000
  master list distance cutoff = 2.8
  ghost atom cutoff = 2.8
  binsize = 1.4, bins = 29 29 29
  7 neighbor lists, perpetual/occasional/extra = 6 1 0
  (1) pair lj/expand/twopiece, perpetual, skip from (7)
      attributes: half, newton on
      pair build: skip
      stencil: none
      bin: none
  (2) pair lj/twopiece, perpetual, skip from (7)
      attributes: half, newton on
      pair build: skip
      stencil: none
      bin: none
  (3) pair soft/shift, perpetual, skip from (7)
      attributes: half, newton on
      pair build: skip
      stencil: none
      bin: none
  (4) pair zero, perpetual, skip from (7)
      attributes: half, newton on
      pair build: skip
      stencil: none
      bin: none
  (5) pair morse, perpetual, skip from (7)
      attributes: half, newton on
      pair build: skip
      stencil: none
      bin: none
  (6) compute pair/local, occasional, copy from (7)
      attributes: half, newton on
      pair build: copy
      stencil: none
      bin: none
  (7) neighbor class addition, perpetual
      attributes: half, newton on
      pair build: half/bin/newton
      stencil: half/bin/3d/newton
      bin: standard
Per MPI rank memory allocation (min/avg/max) = 9.833 | 9.833 | 9.833 Mbytes
Step Temp E_pair E_mol TotEng Press 
    3000            0 -0.0021674289            0 -0.0021674289 -1.3543493e-07 
    3200            0 -0.0021674289            0 -0.0021674289 -1.3543493e-07 
    3400            0 -0.0021674289            0 -0.0021674289 -1.3543493e-07 
    3600            0 -0.0021674289            0 -0.0021674289 -1.3543493e-07 
    3800            0 -0.0021674289            0 -0.0021674289 -1.3543493e-07 
    4000            0 -0.0021674289            0 -0.0021674289 -1.3543493e-07 
Loop time of 0.00580096 on 1 procs for 1000 steps with 2 atoms

Performance: 14894080.210 tau/day, 172385.188 timesteps/s
0.0% CPU use with 1 MPI tasks x 1 OpenMP threads

MPI task timing breakdown:
Section |  min time  |  avg time  |  max time  |%varavg| %total
---------------------------------------------------------------
Pair    | 0.00085139 | 0.00085139 | 0.00085139 |   0.0 | 14.68
Bond    | 0.00045156 | 0.00045156 | 0.00045156 |   0.0 |  7.78
Neigh   | 0          | 0          | 0          |   0.0 |  0.00
Comm    | 0.00069785 | 0.00069785 | 0.00069785 |   0.0 | 12.03
Output  | 0.0021236  | 0.0021236  | 0.0021236  |   0.0 | 36.61
Modify  | 0.00065947 | 0.00065947 | 0.00065947 |   0.0 | 11.37
Other   |            | 0.001017   |            |       | 17.53

Nlocal:    2 ave 2 max 2 min
Histogram: 1 0 0 0 0 0 0 0 0 0
Nghost:    0 ave 0 max 0 min
Histogram: 1 0 0 0 0 0 0 0 0 0
Neighs:    0 ave 0 max 0 min
Histogram: 1 0 0 0 0 0 0 0 0 0

Total # of neighbors = 0
Ave neighs/atom = 0
Ave special neighs/atom = 0
Neighbor list builds = 0
Dangerous builds = 0
  next a
  jump SELF loop
  displace_atoms atom2 move 0 -0.02 0
  run   1000
Neighbor list info ...
  update every 1 steps, delay 10 steps, check yes
  max neighbors/atom: 2000, page size: 100000
  master list distance cutoff = 2.8
  ghost atom cutoff = 2.8
  binsize = 1.4, bins = 29 29 29
  7 neighbor lists, perpetual/occasional/extra = 6 1 0
  (1) pair lj/expand/twopiece, perpetual, skip from (7)
      attributes: half, newton on
      pair build: skip
      stencil: none
      bin: none
  (2) pair lj/twopiece, perpetual, skip from (7)
      attributes: half, newton on
      pair build: skip
      stencil: none
      bin: none
  (3) pair soft/shift, perpetual, skip from (7)
      attributes: half, newton on
      pair build: skip
      stencil: none
      bin: none
  (4) pair zero, perpetual, skip from (7)
      attributes: half, newton on
      pair build: skip
      stencil: none
      bin: none
  (5) pair morse, perpetual, skip from (7)
      attributes: half, newton on
      pair build: skip
      stencil: none
      bin: none
  (6) compute pair/local, occasional, copy from (7)
      attributes: half, newton on
      pair build: copy
      stencil: none
      bin: none
  (7) neighbor class addition, perpetual
      attributes: half, newton on
      pair build: half/bin/newton
      stencil: half/bin/3d/newton
      bin: standard
Per MPI rank memory allocation (min/avg/max) = 9.833 | 9.833 | 9.833 Mbytes
Step Temp E_pair E_mol TotEng Press 
    4000            0 -0.0022993862            0 -0.0022993862 -1.4367858e-07 
    4200            0 -0.0022993862            0 -0.0022993862 -1.4367858e-07 
    4400            0 -0.0022993862            0 -0.0022993862 -1.4367858e-07 
    4600            0 -0.0022993862            0 -0.0022993862 -1.4367858e-07 
    4800            0 -0.0022993862            0 -0.0022993862 -1.4367858e-07 
    5000            0 -0.0022993862            0 -0.0022993862 -1.4367858e-07 
Loop time of 0.00498009 on 1 procs for 1000 steps with 2 atoms

Performance: 17349093.527 tau/day, 200799.694 timesteps/s
0.0% CPU use with 1 MPI tasks x 1 OpenMP threads

MPI task timing breakdown:
Section |  min time  |  avg time  |  max time  |%varavg| %total
---------------------------------------------------------------
Pair    | 0.00067163 | 0.00067163 | 0.00067163 |   0.0 | 13.49
Bond    | 0.00039339 | 0.00039339 | 0.00039339 |   0.0 |  7.90
Neigh   | 0          | 0          | 0          |   0.0 |  0.00
Comm    | 0.00064945 | 0.00064945 | 0.00064945 |   0.0 | 13.04
Output  | 0.0017281  | 0.0017281  | 0.0017281  |   0.0 | 34.70
Modify  | 0.00060153 | 0.00060153 | 0.00060153 |   0.0 | 12.08
Other   |            | 0.000936   |            |       | 18.80

Nlocal:    2 ave 2 max 2 min
Histogram: 1 0 0 0 0 0 0 0 0 0
Nghost:    0 ave 0 max 0 min
Histogram: 1 0 0 0 0 0 0 0 0 0
Neighs:    0 ave 0 max 0 min
Histogram: 1 0 0 0 0 0 0 0 0 0

Total # of neighbors = 0
Ave neighs/atom = 0
Ave special neighs/atom = 0
Neighbor list builds = 0
Dangerous builds = 0
  next a
  jump SELF loop
  displace_atoms atom2 move 0 -0.02 0
  run   1000
Neighbor list info ...
  update every 1 steps, delay 10 steps, check yes
  max neighbors/atom: 2000, page size: 100000
  master list distance cutoff = 2.8
  ghost atom cutoff = 2.8
  binsize = 1.4, bins = 29 29 29
  7 neighbor lists, perpetual/occasional/extra = 6 1 0
  (1) pair lj/expand/twopiece, perpetual, skip from (7)
      attributes: half, newton on
      pair build: skip
      stencil: none
      bin: none
  (2) pair lj/twopiece, perpetual, skip from (7)
      attributes: half, newton on
      pair build: skip
      stencil: none
      bin: none
  (3) pair soft/shift, perpetual, skip from (7)
      attributes: half, newton on
      pair build: skip
      stencil: none
      bin: none
  (4) pair zero, perpetual, skip from (7)
      attributes: half, newton on
      pair build: skip
      stencil: none
      bin: none
  (5) pair morse, perpetual, skip from (7)
      attributes: half, newton on
      pair build: skip
      stencil: none
      bin: none
  (6) compute pair/local, occasional, copy from (7)
      attributes: half, newton on
      pair build: copy
      stencil: none
      bin: none
  (7) neighbor class addition, perpetual
      attributes: half, newton on
      pair build: half/bin/newton
      stencil: half/bin/3d/newton
      bin: standard
Per MPI rank memory allocation (min/avg/max) = 9.833 | 9.833 | 9.833 Mbytes
Step Temp E_pair E_mol TotEng Press 
    5000            0 -0.0024408102            0 -0.0024408102 -1.5251338e-07 
    5200            0 -0.0024408102            0 -0.0024408102 -1.5251338e-07 
    5400            0 -0.0024408102            0 -0.0024408102 -1.5251338e-07 
    5600            0 -0.0024408102            0 -0.0024408102 -1.5251338e-07 
    5800            0 -0.0024408102            0 -0.0024408102 -1.5251338e-07 
    6000            0 -0.0024408102            0 -0.0024408102 -1.5251338e-07 
Loop time of 0.00627589 on 1 procs for 1000 steps with 2 atoms

Performance: 13766966.744 tau/day, 159339.893 timesteps/s
0.0% CPU use with 1 MPI tasks x 1 OpenMP threads

MPI task timing breakdown:
Section |  min time  |  avg time  |  max time  |%varavg| %total
---------------------------------------------------------------
Pair    | 0.00089145 | 0.00089145 | 0.00089145 |   0.0 | 14.20
Bond    | 0.00052333 | 0.00052333 | 0.00052333 |   0.0 |  8.34
Neigh   | 0          | 0          | 0          |   0.0 |  0.00
Comm    | 0.00080395 | 0.00080395 | 0.00080395 |   0.0 | 12.81
Output  | 0.0023589  | 0.0023589  | 0.0023589  |   0.0 | 37.59
Modify  | 0.00067973 | 0.00067973 | 0.00067973 |   0.0 | 10.83
Other   |            | 0.001019   |            |       | 16.23

Nlocal:    2 ave 2 max 2 min
Histogram: 1 0 0 0 0 0 0 0 0 0
Nghost:    0 ave 0 max 0 min
Histogram: 1 0 0 0 0 0 0 0 0 0
Neighs:    0 ave 0 max 0 min
Histogram: 1 0 0 0 0 0 0 0 0 0

Total # of neighbors = 0
Ave neighs/atom = 0
Ave special neighs/atom = 0
Neighbor list builds = 0
Dangerous builds = 0
  next a
  jump SELF loop
  displace_atoms atom2 move 0 -0.02 0
  run   1000
Neighbor list info ...
  update every 1 steps, delay 10 steps, check yes
  max neighbors/atom: 2000, page size: 100000
  master list distance cutoff = 2.8
  ghost atom cutoff = 2.8
  binsize = 1.4, bins = 29 29 29
  7 neighbor lists, perpetual/occasional/extra = 6 1 0
  (1) pair lj/expand/twopiece, perpetual, skip from (7)
      attributes: half, newton on
      pair build: skip
      stencil: none
      bin: none
  (2) pair lj/twopiece, perpetual, skip from (7)
      attributes: half, newton on
      pair build: skip
      stencil: none
      bin: none
  (3) pair soft/shift, perpetual, skip from (7)
      attributes: half, newton on
      pair build: skip
      stencil: none
      bin: none
  (4) pair zero, perpetual, skip from (7)
      attributes: half, newton on
      pair build: skip
      stencil: none
      bin: none
  (5) pair morse, perpetual, skip from (7)
      attributes: half, newton on
      pair build: skip
      stencil: none
      bin: none
  (6) compute pair/local, occasional, copy from (7)
      attributes: half, newton on
      pair build: copy
      stencil: none
      bin: none
  (7) neighbor class addition, perpetual
      attributes: half, newton on
      pair build: half/bin/newton
      stencil: half/bin/3d/newton
      bin: standard
Per MPI rank memory allocation (min/avg/max) = 9.833 | 9.833 | 9.833 Mbytes
Step Temp E_pair E_mol TotEng Press 
    6000            0 -0.002592485            0 -0.002592485 -1.6198828e-07 
    6200            0 -0.002592485            0 -0.002592485 -1.6198828e-07 
    6400            0 -0.002592485            0 -0.002592485 -1.6198828e-07 
    6600            0 -0.002592485            0 -0.002592485 -1.6198828e-07 
    6800            0 -0.002592485            0 -0.002592485 -1.6198828e-07 
    7000            0 -0.002592485            0 -0.002592485 -1.6198828e-07 
Loop time of 0.00556898 on 1 procs for 1000 steps with 2 atoms

Performance: 15514507.475 tau/day, 179566.059 timesteps/s
0.0% CPU use with 1 MPI tasks x 1 OpenMP threads

MPI task timing breakdown:
Section |  min time  |  avg time  |  max time  |%varavg| %total
---------------------------------------------------------------
Pair    | 0.00076675 | 0.00076675 | 0.00076675 |   0.0 | 13.77
Bond    | 0.00037479 | 0.00037479 | 0.00037479 |   0.0 |  6.73
Neigh   | 0          | 0          | 0          |   0.0 |  0.00
Comm    | 0.00067711 | 0.00067711 | 0.00067711 |   0.0 | 12.16
Output  | 0.0019779  | 0.0019779  | 0.0019779  |   0.0 | 35.52
Modify  | 0.00080037 | 0.00080037 | 0.00080037 |   0.0 | 14.37
Other   |            | 0.000972   |            |       | 17.45

Nlocal:    2 ave 2 max 2 min
Histogram: 1 0 0 0 0 0 0 0 0 0
Nghost:    0 ave 0 max 0 min
Histogram: 1 0 0 0 0 0 0 0 0 0
Neighs:    0 ave 0 max 0 min
Histogram: 1 0 0 0 0 0 0 0 0 0

Total # of neighbors = 0
Ave neighs/atom = 0
Ave special neighs/atom = 0
Neighbor list builds = 0
Dangerous builds = 0
  next a
  jump SELF loop
  displace_atoms atom2 move 0 -0.02 0
  run   1000
Neighbor list info ...
  update every 1 steps, delay 10 steps, check yes
  max neighbors/atom: 2000, page size: 100000
  master list distance cutoff = 2.8
  ghost atom cutoff = 2.8
  binsize = 1.4, bins = 29 29 29
  7 neighbor lists, perpetual/occasional/extra = 6 1 0
  (1) pair lj/expand/twopiece, perpetual, skip from (7)
      attributes: half, newton on
      pair build: skip
      stencil: none
      bin: none
  (2) pair lj/twopiece, perpetual, skip from (7)
      attributes: half, newton on
      pair build: skip
      stencil: none
      bin: none
  (3) pair soft/shift, perpetual, skip from (7)
      attributes: half, newton on
      pair build: skip
      stencil: none
      bin: none
  (4) pair zero, perpetual, skip from (7)
      attributes: half, newton on
      pair build: skip
      stencil: none
      bin: none
  (5) pair morse, perpetual, skip from (7)
      attributes: half, newton on
      pair build: skip
      stencil: none
      bin: none
  (6) compute pair/local, occasional, copy from (7)
      attributes: half, newton on
      pair build: copy
      stencil: none
      bin: none
  (7) neighbor class addition, perpetual
      attributes: half, newton on
      pair build: half/bin/newton
      stencil: half/bin/3d/newton
      bin: standard
Per MPI rank memory allocation (min/avg/max) = 9.833 | 9.833 | 9.833 Mbytes
Step Temp E_pair E_mol TotEng Press 
    7000            0 -0.0027552683            0 -0.0027552683 -1.7215679e-07 
    7200            0 -0.0027552683            0 -0.0027552683 -1.7215679e-07 
    7400            0 -0.0027552683            0 -0.0027552683 -1.7215679e-07 
    7600            0 -0.0027552683            0 -0.0027552683 -1.7215679e-07 
    7800            0 -0.0027552683            0 -0.0027552683 -1.7215679e-07 
    8000            0 -0.0027552683            0 -0.0027552683 -1.7215679e-07 
Loop time of 0.00439596 on 1 procs for 1000 steps with 2 atoms

Performance: 19654402.083 tau/day, 227481.506 timesteps/s
0.0% CPU use with 1 MPI tasks x 1 OpenMP threads

MPI task timing breakdown:
Section |  min time  |  avg time  |  max time  |%varavg| %total
---------------------------------------------------------------
Pair    | 0.000597   | 0.000597   | 0.000597   |   0.0 | 13.58
Bond    | 0.00033212 | 0.00033212 | 0.00033212 |   0.0 |  7.56
Neigh   | 0          | 0          | 0          |   0.0 |  0.00
Comm    | 0.00058103 | 0.00058103 | 0.00058103 |   0.0 | 13.22
Output  | 0.0014429  | 0.0014429  | 0.0014429  |   0.0 | 32.82
Modify  | 0.00056005 | 0.00056005 | 0.00056005 |   0.0 | 12.74
Other   |            | 0.0008829  |            |       | 20.08

Nlocal:    2 ave 2 max 2 min
Histogram: 1 0 0 0 0 0 0 0 0 0
Nghost:    0 ave 0 max 0 min
Histogram: 1 0 0 0 0 0 0 0 0 0
Neighs:    0 ave 0 max 0 min
Histogram: 1 0 0 0 0 0 0 0 0 0

Total # of neighbors = 0
Ave neighs/atom = 0
Ave special neighs/atom = 0
Neighbor list builds = 0
Dangerous builds = 0
  next a
  jump SELF loop
  displace_atoms atom2 move 0 -0.02 0
  run   1000
Neighbor list info ...
  update every 1 steps, delay 10 steps, check yes
  max neighbors/atom: 2000, page size: 100000
  master list distance cutoff = 2.8
  ghost atom cutoff = 2.8
  binsize = 1.4, bins = 29 29 29
  7 neighbor lists, perpetual/occasional/extra = 6 1 0
  (1) pair lj/expand/twopiece, perpetual, skip from (7)
      attributes: half, newton on
      pair build: skip
      stencil: none
      bin: none
  (2) pair lj/twopiece, perpetual, skip from (7)
      attributes: half, newton on
      pair build: skip
      stencil: none
      bin: none
  (3) pair soft/shift, perpetual, skip from (7)
      attributes: half, newton on
      pair build: skip
      stencil: none
      bin: none
  (4) pair zero, perpetual, skip from (7)
      attributes: half, newton on
      pair build: skip
      stencil: none
      bin: none
  (5) pair morse, perpetual, skip from (7)
      attributes: half, newton on
      pair build: skip
      stencil: none
      bin: none
  (6) compute pair/local, occasional, copy from (7)
      attributes: half, newton on
      pair build: copy
      stencil: none
      bin: none
  (7) neighbor class addition, perpetual
      attributes: half, newton on
      pair build: half/bin/newton
      stencil: half/bin/3d/newton
      bin: standard
Per MPI rank memory allocation (min/avg/max) = 9.833 | 9.833 | 9.833 Mbytes
Step Temp E_pair E_mol TotEng Press 
    8000            0 -0.0029300993            0 -0.0029300993 -1.8307752e-07 
    8200            0 -0.0029300993            0 -0.0029300993 -1.8307752e-07 
    8400            0 -0.0029300993            0 -0.0029300993 -1.8307752e-07 
    8600            0 -0.0029300993            0 -0.0029300993 -1.8307752e-07 
    8800            0 -0.0029300993            0 -0.0029300993 -1.8307752e-07 
    9000            0 -0.0029300993            0 -0.0029300993 -1.8307752e-07 
Loop time of 0.00412512 on 1 procs for 1000 steps with 2 atoms

Performance: 20944854.098 tau/day, 242417.293 timesteps/s
0.0% CPU use with 1 MPI tasks x 1 OpenMP threads

MPI task timing breakdown:
Section |  min time  |  avg time  |  max time  |%varavg| %total
---------------------------------------------------------------
Pair    | 0.00062895 | 0.00062895 | 0.00062895 |   0.0 | 15.25
Bond    | 0.00030804 | 0.00030804 | 0.00030804 |   0.0 |  7.47
Neigh   | 0          | 0          | 0          |   0.0 |  0.00
Comm    | 0.00053644 | 0.00053644 | 0.00053644 |   0.0 | 13.00
Output  | 0.0012748  | 0.0012748  | 0.0012748  |   0.0 | 30.90
Modify  | 0.00052786 | 0.00052786 | 0.00052786 |   0.0 | 12.80
Other   |            | 0.000849   |            |       | 20.58

Nlocal:    2 ave 2 max 2 min
Histogram: 1 0 0 0 0 0 0 0 0 0
Nghost:    0 ave 0 max 0 min
Histogram: 1 0 0 0 0 0 0 0 0 0
Neighs:    0 ave 0 max 0 min
Histogram: 1 0 0 0 0 0 0 0 0 0

Total # of neighbors = 0
Ave neighs/atom = 0
Ave special neighs/atom = 0
Neighbor list builds = 0
Dangerous builds = 0
  next a
  jump SELF loop
  displace_atoms atom2 move 0 -0.02 0
  run   1000
Neighbor list info ...
  update every 1 steps, delay 10 steps, check yes
  max neighbors/atom: 2000, page size: 100000
  master list distance cutoff = 2.8
  ghost atom cutoff = 2.8
  binsize = 1.4, bins = 29 29 29
  7 neighbor lists, perpetual/occasional/extra = 6 1 0
  (1) pair lj/expand/twopiece, perpetual, skip from (7)
      attributes: half, newton on
      pair build: skip
      stencil: none
      bin: none
  (2) pair lj/twopiece, perpetual, skip from (7)
      attributes: half, newton on
      pair build: skip
      stencil: none
      bin: none
  (3) pair soft/shift, perpetual, skip from (7)
      attributes: half, newton on
      pair build: skip
      stencil: none
      bin: none
  (4) pair zero, perpetual, skip from (7)
      attributes: half, newton on
      pair build: skip
      stencil: none
      bin: none
  (5) pair morse, perpetual, skip from (7)
      attributes: half, newton on
      pair build: skip
      stencil: none
      bin: none
  (6) compute pair/local, occasional, copy from (7)
      attributes: half, newton on
      pair build: copy
      stencil: none
      bin: none
  (7) neighbor class addition, perpetual
      attributes: half, newton on
      pair build: half/bin/newton
      stencil: half/bin/3d/newton
      bin: standard
Per MPI rank memory allocation (min/avg/max) = 9.833 | 9.833 | 9.833 Mbytes
Step Temp E_pair E_mol TotEng Press 
    9000            0 -0.0031180077            0 -0.0031180077 -1.9481468e-07 
    9200            0 -0.0031180077            0 -0.0031180077 -1.9481468e-07 
    9400            0 -0.0031180077            0 -0.0031180077 -1.9481468e-07 
    9600            0 -0.0031180077            0 -0.0031180077 -1.9481468e-07 
    9800            0 -0.0031180077            0 -0.0031180077 -1.9481468e-07 
   10000            0 -0.0031180077            0 -0.0031180077 -1.9481468e-07 
Loop time of 0.00398397 on 1 procs for 1000 steps with 2 atoms

Performance: 21686886.032 tau/day, 251005.625 timesteps/s
0.0% CPU use with 1 MPI tasks x 1 OpenMP threads

MPI task timing breakdown:
Section |  min time  |  avg time  |  max time  |%varavg| %total
---------------------------------------------------------------
Pair    | 0.00050855 | 0.00050855 | 0.00050855 |   0.0 | 12.76
Bond    | 0.00029135 | 0.00029135 | 0.00029135 |   0.0 |  7.31
Neigh   | 0          | 0          | 0          |   0.0 |  0.00
Comm    | 0.00051689 | 0.00051689 | 0.00051689 |   0.0 | 12.97
Output  | 0.0013254  | 0.0013254  | 0.0013254  |   0.0 | 33.27
Modify  | 0.00052691 | 0.00052691 | 0.00052691 |   0.0 | 13.23
Other   |            | 0.0008149  |            |       | 20.45

Nlocal:    2 ave 2 max 2 min
Histogram: 1 0 0 0 0 0 0 0 0 0
Nghost:    0 ave 0 max 0 min
Histogram: 1 0 0 0 0 0 0 0 0 0
Neighs:    0 ave 0 max 0 min
Histogram: 1 0 0 0 0 0 0 0 0 0

Total # of neighbors = 0
Ave neighs/atom = 0
Ave special neighs/atom = 0
Neighbor list builds = 0
Dangerous builds = 0
  next a
  jump SELF loop
  displace_atoms atom2 move 0 -0.02 0
  run   1000
Neighbor list info ...
  update every 1 steps, delay 10 steps, check yes
  max neighbors/atom: 2000, page size: 100000
  master list distance cutoff = 2.8
  ghost atom cutoff = 2.8
  binsize = 1.4, bins = 29 29 29
  7 neighbor lists, perpetual/occasional/extra = 6 1 0
  (1) pair lj/expand/twopiece, perpetual, skip from (7)
      attributes: half, newton on
      pair build: skip
      stencil: none
      bin: none
  (2) pair lj/twopiece, perpetual, skip from (7)
      attributes: half, newton on
      pair build: skip
      stencil: none
      bin: none
  (3) pair soft/shift, perpetual, skip from (7)
      attributes: half, newton on
      pair build: skip
      stencil: none
      bin: none
  (4) pair zero, perpetual, skip from (7)
      attributes: half, newton on
      pair build: skip
      stencil: none
      bin: none
  (5) pair morse, perpetual, skip from (7)
      attributes: half, newton on
      pair build: skip
      stencil: none
      bin: none
  (6) compute pair/local, occasional, copy from (7)
      attributes: half, newton on
      pair build: copy
      stencil: none
      bin: none
  (7) neighbor class addition, perpetual
      attributes: half, newton on
      pair build: half/bin/newton
      stencil: half/bin/3d/newton
      bin: standard
Per MPI rank memory allocation (min/avg/max) = 9.833 | 9.833 | 9.833 Mbytes
Step Temp E_pair E_mol TotEng Press 
   10000            0 -0.0033201229            0 -0.0033201229 -2.0743874e-07 
   10200            0 -0.0033201229            0 -0.0033201229 -2.0743874e-07 
   10400            0 -0.0033201229            0 -0.0033201229 -2.0743874e-07 
   10600            0 -0.0033201229            0 -0.0033201229 -2.0743874e-07 
   10800            0 -0.0033201229            0 -0.0033201229 -2.0743874e-07 
   11000            0 -0.0033201229            0 -0.0033201229 -2.0743874e-07 
Loop time of 0.00421381 on 1 procs for 1000 steps with 2 atoms

Performance: 20504009.596 tau/day, 237314.926 timesteps/s
0.0% CPU use with 1 MPI tasks x 1 OpenMP threads

MPI task timing breakdown:
Section |  min time  |  avg time  |  max time  |%varavg| %total
---------------------------------------------------------------
Pair    | 0.00055838 | 0.00055838 | 0.00055838 |   0.0 | 13.25
Bond    | 0.00030303 | 0.00030303 | 0.00030303 |   0.0 |  7.19
Neigh   | 0          | 0          | 0          |   0.0 |  0.00
Comm    | 0.00053978 | 0.00053978 | 0.00053978 |   0.0 | 12.81
Output  | 0.001456   | 0.001456   | 0.001456   |   0.0 | 34.55
Modify  | 0.00052214 | 0.00052214 | 0.00052214 |   0.0 | 12.39
Other   |            | 0.0008345  |            |       | 19.80

Nlocal:    2 ave 2 max 2 min
Histogram: 1 0 0 0 0 0 0 0 0 0
Nghost:    0 ave 0 max 0 min
Histogram: 1 0 0 0 0 0 0 0 0 0
Neighs:    0 ave 0 max 0 min
Histogram: 1 0 0 0 0 0 0 0 0 0

Total # of neighbors = 0
Ave neighs/atom = 0
Ave special neighs/atom = 0
Neighbor list builds = 0
Dangerous builds = 0
  next a
  jump SELF loop
  displace_atoms atom2 move 0 -0.02 0
  run   1000
Neighbor list info ...
  update every 1 steps, delay 10 steps, check yes
  max neighbors/atom: 2000, page size: 100000
  master list distance cutoff = 2.8
  ghost atom cutoff = 2.8
  binsize = 1.4, bins = 29 29 29
  7 neighbor lists, perpetual/occasional/extra = 6 1 0
  (1) pair lj/expand/twopiece, perpetual, skip from (7)
      attributes: half, newton on
      pair build: skip
      stencil: none
      bin: none
  (2) pair lj/twopiece, perpetual, skip from (7)
      attributes: half, newton on
      pair build: skip
      stencil: none
      bin: none
  (3) pair soft/shift, perpetual, skip from (7)
      attributes: half, newton on
      pair build: skip
      stencil: none
      bin: none
  (4) pair zero, perpetual, skip from (7)
      attributes: half, newton on
      pair build: skip
      stencil: none
      bin: none
  (5) pair morse, perpetual, skip from (7)
      attributes: half, newton on
      pair build: skip
      stencil: none
      bin: none
  (6) compute pair/local, occasional, copy from (7)
      attributes: half, newton on
      pair build: copy
      stencil: none
      bin: none
  (7) neighbor class addition, perpetual
      attributes: half, newton on
      pair build: half/bin/newton
      stencil: half/bin/3d/newton
      bin: standard
Per MPI rank memory allocation (min/avg/max) = 9.833 | 9.833 | 9.833 Mbytes
Step Temp E_pair E_mol TotEng Press 
   11000            0 -0.0035376854            0 -0.0035376854 -2.2102706e-07 
   11200            0 -0.0035376854            0 -0.0035376854 -2.2102706e-07 
   11400            0 -0.0035376854            0 -0.0035376854 -2.2102706e-07 
   11600            0 -0.0035376854            0 -0.0035376854 -2.2102706e-07 
   11800            0 -0.0035376854            0 -0.0035376854 -2.2102706e-07 
   12000            0 -0.0035376854            0 -0.0035376854 -2.2102706e-07 
Loop time of 0.004246 on 1 procs for 1000 steps with 2 atoms

Performance: 20348580.246 tau/day, 235515.975 timesteps/s
0.0% CPU use with 1 MPI tasks x 1 OpenMP threads

MPI task timing breakdown:
Section |  min time  |  avg time  |  max time  |%varavg| %total
---------------------------------------------------------------
Pair    | 0.00055718 | 0.00055718 | 0.00055718 |   0.0 | 13.12
Bond    | 0.00040793 | 0.00040793 | 0.00040793 |   0.0 |  9.61
Neigh   | 0          | 0          | 0          |   0.0 |  0.00
Comm    | 0.00056624 | 0.00056624 | 0.00056624 |   0.0 | 13.34
Output  | 0.0013261  | 0.0013261  | 0.0013261  |   0.0 | 31.23
Modify  | 0.00051355 | 0.00051355 | 0.00051355 |   0.0 | 12.10
Other   |            | 0.000875   |            |       | 20.61

Nlocal:    2 ave 2 max 2 min
Histogram: 1 0 0 0 0 0 0 0 0 0
Nghost:    0 ave 0 max 0 min
Histogram: 1 0 0 0 0 0 0 0 0 0
Neighs:    0 ave 0 max 0 min
Histogram: 1 0 0 0 0 0 0 0 0 0

Total # of neighbors = 0
Ave neighs/atom = 0
Ave special neighs/atom = 0
Neighbor list builds = 0
Dangerous builds = 0
  next a
  jump SELF loop
  displace_atoms atom2 move 0 -0.02 0
  run   1000
Neighbor list info ...
  update every 1 steps, delay 10 steps, check yes
  max neighbors/atom: 2000, page size: 100000
  master list distance cutoff = 2.8
  ghost atom cutoff = 2.8
  binsize = 1.4, bins = 29 29 29
  7 neighbor lists, perpetual/occasional/extra = 6 1 0
  (1) pair lj/expand/twopiece, perpetual, skip from (7)
      attributes: half, newton on
      pair build: skip
      stencil: none
      bin: none
  (2) pair lj/twopiece, perpetual, skip from (7)
      attributes: half, newton on
      pair build: skip
      stencil: none
      bin: none
  (3) pair soft/shift, perpetual, skip from (7)
      attributes: half, newton on
      pair build: skip
      stencil: none
      bin: none
  (4) pair zero, perpetual, skip from (7)
      attributes: half, newton on
      pair build: skip
      stencil: none
      bin: none
  (5) pair morse, perpetual, skip from (7)
      attributes: half, newton on
      pair build: skip
      stencil: none
      bin: none
  (6) compute pair/local, occasional, copy from (7)
      attributes: half, newton on
      pair build: copy
      stencil: none
      bin: none
  (7) neighbor class addition, perpetual
      attributes: half, newton on
      pair build: half/bin/newton
      stencil: half/bin/3d/newton
      bin: standard
Per MPI rank memory allocation (min/avg/max) = 9.833 | 9.833 | 9.833 Mbytes
Step Temp E_pair E_mol TotEng Press 
   12000            0 -0.0037720588            0 -0.0037720588 -2.3566468e-07 
   12200            0 -0.0037720588            0 -0.0037720588 -2.3566468e-07 
   12400            0 -0.0037720588            0 -0.0037720588 -2.3566468e-07 
   12600            0 -0.0037720588            0 -0.0037720588 -2.3566468e-07 
   12800            0 -0.0037720588            0 -0.0037720588 -2.3566468e-07 
   13000            0 -0.0037720588            0 -0.0037720588 -2.3566468e-07 
Loop time of 0.00489807 on 1 procs for 1000 steps with 2 atoms

Performance: 17639596.262 tau/day, 204161.994 timesteps/s
0.0% CPU use with 1 MPI tasks x 1 OpenMP threads

MPI task timing breakdown:
Section |  min time  |  avg time  |  max time  |%varavg| %total
---------------------------------------------------------------
Pair    | 0.00062633 | 0.00062633 | 0.00062633 |   0.0 | 12.79
Bond    | 0.00033927 | 0.00033927 | 0.00033927 |   0.0 |  6.93
Neigh   | 0          | 0          | 0          |   0.0 |  0.00
Comm    | 0.0006187  | 0.0006187  | 0.0006187  |   0.0 | 12.63
Output  | 0.0016687  | 0.0016687  | 0.0016687  |   0.0 | 34.07
Modify  | 0.00054622 | 0.00054622 | 0.00054622 |   0.0 | 11.15
Other   |            | 0.001099   |            |       | 22.43

Nlocal:    2 ave 2 max 2 min
Histogram: 1 0 0 0 0 0 0 0 0 0
Nghost:    0 ave 0 max 0 min
Histogram: 1 0 0 0 0 0 0 0 0 0
Neighs:    0 ave 0 max 0 min
Histogram: 1 0 0 0 0 0 0 0 0 0

Total # of neighbors = 0
Ave neighs/atom = 0
Ave special neighs/atom = 0
Neighbor list builds = 0
Dangerous builds = 0
  next a
  jump SELF loop
  displace_atoms atom2 move 0 -0.02 0
  run   1000
Neighbor list info ...
  update every 1 steps, delay 10 steps, check yes
  max neighbors/atom: 2000, page size: 100000
  master list distance cutoff = 2.8
  ghost atom cutoff = 2.8
  binsize = 1.4, bins = 29 29 29
  7 neighbor lists, perpetual/occasional/extra = 6 1 0
  (1) pair lj/expand/twopiece, perpetual, skip from (7)
      attributes: half, newton on
      pair build: skip
      stencil: none
      bin: none
  (2) pair lj/twopiece, perpetual, skip from (7)
      attributes: half, newton on
      pair build: skip
      stencil: none
      bin: none
  (3) pair soft/shift, perpetual, skip from (7)
      attributes: half, newton on
      pair build: skip
      stencil: none
      bin: none
  (4) pair zero, perpetual, skip from (7)
      attributes: half, newton on
      pair build: skip
      stencil: none
      bin: none
  (5) pair morse, perpetual, skip from (7)
      attributes: half, newton on
      pair build: skip
      stencil: none
      bin: none
  (6) compute pair/local, occasional, copy from (7)
      attributes: half, newton on
      pair build: copy
      stencil: none
      bin: none
  (7) neighbor class addition, perpetual
      attributes: half, newton on
      pair build: half/bin/newton
      stencil: half/bin/3d/newton
      bin: standard
Per MPI rank memory allocation (min/avg/max) = 9.833 | 9.833 | 9.833 Mbytes
Step Temp E_pair E_mol TotEng Press 
   13000            0 -0.0040247433            0 -0.0040247433 -2.5144514e-07 
   13200            0 -0.0040247433            0 -0.0040247433 -2.5144514e-07 
   13400            0 -0.0040247433            0 -0.0040247433 -2.5144514e-07 
   13600            0 -0.0040247433            0 -0.0040247433 -2.5144514e-07 
   13800            0 -0.0040247433            0 -0.0040247433 -2.5144514e-07 
   14000            0 -0.0040247433            0 -0.0040247433 -2.5144514e-07 
Loop time of 0.00482488 on 1 procs for 1000 steps with 2 atoms

Performance: 17907193.042 tau/day, 207259.179 timesteps/s
0.0% CPU use with 1 MPI tasks x 1 OpenMP threads

MPI task timing breakdown:
Section |  min time  |  avg time  |  max time  |%varavg| %total
---------------------------------------------------------------
Pair    | 0.0006547  | 0.0006547  | 0.0006547  |   0.0 | 13.57
Bond    | 0.00036311 | 0.00036311 | 0.00036311 |   0.0 |  7.53
Neigh   | 0          | 0          | 0          |   0.0 |  0.00
Comm    | 0.0006485  | 0.0006485  | 0.0006485  |   0.0 | 13.44
Output  | 0.001683   | 0.001683   | 0.001683   |   0.0 | 34.88
Modify  | 0.0005784  | 0.0005784  | 0.0005784  |   0.0 | 11.99
Other   |            | 0.0008972  |            |       | 18.59

Nlocal:    2 ave 2 max 2 min
Histogram: 1 0 0 0 0 0 0 0 0 0
Nghost:    0 ave 0 max 0 min
Histogram: 1 0 0 0 0 0 0 0 0 0
Neighs:    0 ave 0 max 0 min
Histogram: 1 0 0 0 0 0 0 0 0 0

Total # of neighbors = 0
Ave neighs/atom = 0
Ave special neighs/atom = 0
Neighbor list builds = 0
Dangerous builds = 0
  next a
  jump SELF loop
  displace_atoms atom2 move 0 -0.02 0
  run   1000
Neighbor list info ...
  update every 1 steps, delay 10 steps, check yes
  max neighbors/atom: 2000, page size: 100000
  master list distance cutoff = 2.8
  ghost atom cutoff = 2.8
  binsize = 1.4, bins = 29 29 29
  7 neighbor lists, perpetual/occasional/extra = 6 1 0
  (1) pair lj/expand/twopiece, perpetual, skip from (7)
      attributes: half, newton on
      pair build: skip
      stencil: none
      bin: none
  (2) pair lj/twopiece, perpetual, skip from (7)
      attributes: half, newton on
      pair build: skip
      stencil: none
      bin: none
  (3) pair soft/shift, perpetual, skip from (7)
      attributes: half, newton on
      pair build: skip
      stencil: none
      bin: none
  (4) pair zero, perpetual, skip from (7)
      attributes: half, newton on
      pair build: skip
      stencil: none
      bin: none
  (5) pair morse, perpetual, skip from (7)
      attributes: half, newton on
      pair build: skip
      stencil: none
      bin: none
  (6) compute pair/local, occasional, copy from (7)
      attributes: half, newton on
      pair build: copy
      stencil: none
      bin: none
  (7) neighbor class addition, perpetual
      attributes: half, newton on
      pair build: half/bin/newton
      stencil: half/bin/3d/newton
      bin: standard
Per MPI rank memory allocation (min/avg/max) = 9.833 | 9.833 | 9.833 Mbytes
Step Temp E_pair E_mol TotEng Press 
   14000            0 -0.0042973917            0 -0.0042973917 -2.6847146e-07 
   14200            0 -0.0042973917            0 -0.0042973917 -2.6847146e-07 
   14400            0 -0.0042973917            0 -0.0042973917 -2.6847146e-07 
   14600            0 -0.0042973917            0 -0.0042973917 -2.6847146e-07 
   14800            0 -0.0042973917            0 -0.0042973917 -2.6847146e-07 
   15000            0 -0.0042973917            0 -0.0042973917 -2.6847146e-07 
Loop time of 0.00671196 on 1 procs for 1000 steps with 2 atoms

Performance: 12872544.246 tau/day, 148987.781 timesteps/s
0.0% CPU use with 1 MPI tasks x 1 OpenMP threads

MPI task timing breakdown:
Section |  min time  |  avg time  |  max time  |%varavg| %total
---------------------------------------------------------------
Pair    | 0.00088739 | 0.00088739 | 0.00088739 |   0.0 | 13.22
Bond    | 0.00045562 | 0.00045562 | 0.00045562 |   0.0 |  6.79
Neigh   | 0          | 0          | 0          |   0.0 |  0.00
Comm    | 0.00074887 | 0.00074887 | 0.00074887 |   0.0 | 11.16
Output  | 0.0027149  | 0.0027149  | 0.0027149  |   0.0 | 40.45
Modify  | 0.00080991 | 0.00080991 | 0.00080991 |   0.0 | 12.07
Other   |            | 0.001095   |            |       | 16.32

Nlocal:    2 ave 2 max 2 min
Histogram: 1 0 0 0 0 0 0 0 0 0
Nghost:    0 ave 0 max 0 min
Histogram: 1 0 0 0 0 0 0 0 0 0
Neighs:    0 ave 0 max 0 min
Histogram: 1 0 0 0 0 0 0 0 0 0

Total # of neighbors = 0
Ave neighs/atom = 0
Ave special neighs/atom = 0
Neighbor list builds = 0
Dangerous builds = 0
  next a
  jump SELF loop
  displace_atoms atom2 move 0 -0.02 0
  run   1000
Neighbor list info ...
  update every 1 steps, delay 10 steps, check yes
  max neighbors/atom: 2000, page size: 100000
  master list distance cutoff = 2.8
  ghost atom cutoff = 2.8
  binsize = 1.4, bins = 29 29 29
  7 neighbor lists, perpetual/occasional/extra = 6 1 0
  (1) pair lj/expand/twopiece, perpetual, skip from (7)
      attributes: half, newton on
      pair build: skip
      stencil: none
      bin: none
  (2) pair lj/twopiece, perpetual, skip from (7)
      attributes: half, newton on
      pair build: skip
      stencil: none
      bin: none
  (3) pair soft/shift, perpetual, skip from (7)
      attributes: half, newton on
      pair build: skip
      stencil: none
      bin: none
  (4) pair zero, perpetual, skip from (7)
      attributes: half, newton on
      pair build: skip
      stencil: none
      bin: none
  (5) pair morse, perpetual, skip from (7)
      attributes: half, newton on
      pair build: skip
      stencil: none
      bin: none
  (6) compute pair/local, occasional, copy from (7)
      attributes: half, newton on
      pair build: copy
      stencil: none
      bin: none
  (7) neighbor class addition, perpetual
      attributes: half, newton on
      pair build: half/bin/newton
      stencil: half/bin/3d/newton
      bin: standard
Per MPI rank memory allocation (min/avg/max) = 9.833 | 9.833 | 9.833 Mbytes
Step Temp E_pair E_mol TotEng Press 
   15000            0 -0.0045918262            0 -0.0045918262 -2.8685723e-07 
   15200            0 -0.0045918262            0 -0.0045918262 -2.8685723e-07 
   15400            0 -0.0045918262            0 -0.0045918262 -2.8685723e-07 
   15600            0 -0.0045918262            0 -0.0045918262 -2.8685723e-07 
   15800            0 -0.0045918262            0 -0.0045918262 -2.8685723e-07 
   16000            0 -0.0045918262            0 -0.0045918262 -2.8685723e-07 
Loop time of 0.00635004 on 1 procs for 1000 steps with 2 atoms

Performance: 13606212.570 tau/day, 157479.312 timesteps/s
246.1% CPU use with 1 MPI tasks x 1 OpenMP threads

MPI task timing breakdown:
Section |  min time  |  avg time  |  max time  |%varavg| %total
---------------------------------------------------------------
Pair    | 0.00081921 | 0.00081921 | 0.00081921 |   0.0 | 12.90
Bond    | 0.00042963 | 0.00042963 | 0.00042963 |   0.0 |  6.77
Neigh   | 0          | 0          | 0          |   0.0 |  0.00
Comm    | 0.00071573 | 0.00071573 | 0.00071573 |   0.0 | 11.27
Output  | 0.0024905  | 0.0024905  | 0.0024905  |   0.0 | 39.22
Modify  | 0.00074935 | 0.00074935 | 0.00074935 |   0.0 | 11.80
Other   |            | 0.001146   |            |       | 18.04

Nlocal:    2 ave 2 max 2 min
Histogram: 1 0 0 0 0 0 0 0 0 0
Nghost:    0 ave 0 max 0 min
Histogram: 1 0 0 0 0 0 0 0 0 0
Neighs:    0 ave 0 max 0 min
Histogram: 1 0 0 0 0 0 0 0 0 0

Total # of neighbors = 0
Ave neighs/atom = 0
Ave special neighs/atom = 0
Neighbor list builds = 0
Dangerous builds = 0
  next a
  jump SELF loop
  displace_atoms atom2 move 0 -0.02 0
  run   1000
Neighbor list info ...
  update every 1 steps, delay 10 steps, check yes
  max neighbors/atom: 2000, page size: 100000
  master list distance cutoff = 2.8
  ghost atom cutoff = 2.8
  binsize = 1.4, bins = 29 29 29
  7 neighbor lists, perpetual/occasional/extra = 6 1 0
  (1) pair lj/expand/twopiece, perpetual, skip from (7)
      attributes: half, newton on
      pair build: skip
      stencil: none
      bin: none
  (2) pair lj/twopiece, perpetual, skip from (7)
      attributes: half, newton on
      pair build: skip
      stencil: none
      bin: none
  (3) pair soft/shift, perpetual, skip from (7)
      attributes: half, newton on
      pair build: skip
      stencil: none
      bin: none
  (4) pair zero, perpetual, skip from (7)
      attributes: half, newton on
      pair build: skip
      stencil: none
      bin: none
  (5) pair morse, perpetual, skip from (7)
      attributes: half, newton on
      pair build: skip
      stencil: none
      bin: none
  (6) compute pair/local, occasional, copy from (7)
      attributes: half, newton on
      pair build: copy
      stencil: none
      bin: none
  (7) neighbor class addition, perpetual
      attributes: half, newton on
      pair build: half/bin/newton
      stencil: half/bin/3d/newton
      bin: standard
Per MPI rank memory allocation (min/avg/max) = 9.833 | 9.833 | 9.833 Mbytes
Step Temp E_pair E_mol TotEng Press 
   16000            0 -0.0049100579            0 -0.0049100579 -3.0672779e-07 
   16200            0 -0.0049100579            0 -0.0049100579 -3.0672779e-07 
   16400            0 -0.0049100579            0 -0.0049100579 -3.0672779e-07 
   16600            0 -0.0049100579            0 -0.0049100579 -3.0672779e-07 
   16800            0 -0.0049100579            0 -0.0049100579 -3.0672779e-07 
   17000            0 -0.0049100579            0 -0.0049100579 -3.0672779e-07 
Loop time of 0.00497794 on 1 procs for 1000 steps with 2 atoms

Performance: 17356571.943 tau/day, 200886.249 timesteps/s
0.0% CPU use with 1 MPI tasks x 1 OpenMP threads

MPI task timing breakdown:
Section |  min time  |  avg time  |  max time  |%varavg| %total
---------------------------------------------------------------
Pair    | 0.00068069 | 0.00068069 | 0.00068069 |   0.0 | 13.67
Bond    | 0.00035095 | 0.00035095 | 0.00035095 |   0.0 |  7.05
Neigh   | 0          | 0          | 0          |   0.0 |  0.00
Comm    | 0.00062394 | 0.00062394 | 0.00062394 |   0.0 | 12.53
Output  | 0.0017838  | 0.0017838  | 0.0017838  |   0.0 | 35.84
Modify  | 0.00058055 | 0.00058055 | 0.00058055 |   0.0 | 11.66
Other   |            | 0.000958   |            |       | 19.24

Nlocal:    2 ave 2 max 2 min
Histogram: 1 0 0 0 0 0 0 0 0 0
Nghost:    0 ave 0 max 0 min
Histogram: 1 0 0 0 0 0 0 0 0 0
Neighs:    0 ave 0 max 0 min
Histogram: 1 0 0 0 0 0 0 0 0 0

Total # of neighbors = 0
Ave neighs/atom = 0
Ave special neighs/atom = 0
Neighbor list builds = 0
Dangerous builds = 0
  next a
  jump SELF loop
  displace_atoms atom2 move 0 -0.02 0
  run   1000
Neighbor list info ...
  update every 1 steps, delay 10 steps, check yes
  max neighbors/atom: 2000, page size: 100000
  master list distance cutoff = 2.8
  ghost atom cutoff = 2.8
  binsize = 1.4, bins = 29 29 29
  7 neighbor lists, perpetual/occasional/extra = 6 1 0
  (1) pair lj/expand/twopiece, perpetual, skip from (7)
      attributes: half, newton on
      pair build: skip
      stencil: none
      bin: none
  (2) pair lj/twopiece, perpetual, skip from (7)
      attributes: half, newton on
      pair build: skip
      stencil: none
      bin: none
  (3) pair soft/shift, perpetual, skip from (7)
      attributes: half, newton on
      pair build: skip
      stencil: none
      bin: none
  (4) pair zero, perpetual, skip from (7)
      attributes: half, newton on
      pair build: skip
      stencil: none
      bin: none
  (5) pair morse, perpetual, skip from (7)
      attributes: half, newton on
      pair build: skip
      stencil: none
      bin: none
  (6) compute pair/local, occasional, copy from (7)
      attributes: half, newton on
      pair build: copy
      stencil: none
      bin: none
  (7) neighbor class addition, perpetual
      attributes: half, newton on
      pair build: half/bin/newton
      stencil: half/bin/3d/newton
      bin: standard
Per MPI rank memory allocation (min/avg/max) = 9.833 | 9.833 | 9.833 Mbytes
Step Temp E_pair E_mol TotEng Press 
   17000            0 -0.0052543095            0 -0.0052543095 -3.2822161e-07 
   17200            0 -0.0052543095            0 -0.0052543095 -3.2822161e-07 
   17400            0 -0.0052543095            0 -0.0052543095 -3.2822161e-07 
   17600            0 -0.0052543095            0 -0.0052543095 -3.2822161e-07 
   17800            0 -0.0052543095            0 -0.0052543095 -3.2822161e-07 
   18000            0 -0.0052543095            0 -0.0052543095 -3.2822161e-07 
Loop time of 0.00402713 on 1 procs for 1000 steps with 2 atoms

Performance: 21454494.441 tau/day, 248315.908 timesteps/s
0.0% CPU use with 1 MPI tasks x 1 OpenMP threads

MPI task timing breakdown:
Section |  min time  |  avg time  |  max time  |%varavg| %total
---------------------------------------------------------------
Pair    | 0.00053167 | 0.00053167 | 0.00053167 |   0.0 | 13.20
Bond    | 0.00029469 | 0.00029469 | 0.00029469 |   0.0 |  7.32
Neigh   | 0          | 0          | 0          |   0.0 |  0.00
Comm    | 0.00053406 | 0.00053406 | 0.00053406 |   0.0 | 13.26
Output  | 0.0013061  | 0.0013061  | 0.0013061  |   0.0 | 32.43
Modify  | 0.00053287 | 0.00053287 | 0.00053287 |   0.0 | 13.23
Other   |            | 0.0008278  |            |       | 20.56

Nlocal:    2 ave 2 max 2 min
Histogram: 1 0 0 0 0 0 0 0 0 0
Nghost:    0 ave 0 max 0 min
Histogram: 1 0 0 0 0 0 0 0 0 0
Neighs:    0 ave 0 max 0 min
Histogram: 1 0 0 0 0 0 0 0 0 0

Total # of neighbors = 0
Ave neighs/atom = 0
Ave special neighs/atom = 0
Neighbor list builds = 0
Dangerous builds = 0
  next a
  jump SELF loop
  displace_atoms atom2 move 0 -0.02 0
  run   1000
Neighbor list info ...
  update every 1 steps, delay 10 steps, check yes
  max neighbors/atom: 2000, page size: 100000
  master list distance cutoff = 2.8
  ghost atom cutoff = 2.8
  binsize = 1.4, bins = 29 29 29
  7 neighbor lists, perpetual/occasional/extra = 6 1 0
  (1) pair lj/expand/twopiece, perpetual, skip from (7)
      attributes: half, newton on
      pair build: skip
      stencil: none
      bin: none
  (2) pair lj/twopiece, perpetual, skip from (7)
      attributes: half, newton on
      pair build: skip
      stencil: none
      bin: none
  (3) pair soft/shift, perpetual, skip from (7)
      attributes: half, newton on
      pair build: skip
      stencil: none
      bin: none
  (4) pair zero, perpetual, skip from (7)
      attributes: half, newton on
      pair build: skip
      stencil: none
      bin: none
  (5) pair morse, perpetual, skip from (7)
      attributes: half, newton on
      pair build: skip
      stencil: none
      bin: none
  (6) compute pair/local, occasional, copy from (7)
      attributes: half, newton on
      pair build: copy
      stencil: none
      bin: none
  (7) neighbor class addition, perpetual
      attributes: half, newton on
      pair build: half/bin/newton
      stencil: half/bin/3d/newton
      bin: standard
Per MPI rank memory allocation (min/avg/max) = 9.833 | 9.833 | 9.833 Mbytes
Step Temp E_pair E_mol TotEng Press 
   18000            0 -0.0056270393            0 -0.0056270393 -3.5149184e-07 
   18200            0 -0.0056270393            0 -0.0056270393 -3.5149184e-07 
   18400            0 -0.0056270393            0 -0.0056270393 -3.5149184e-07 
   18600            0 -0.0056270393            0 -0.0056270393 -3.5149184e-07 
   18800            0 -0.0056270393            0 -0.0056270393 -3.5149184e-07 
   19000            0 -0.0056270393            0 -0.0056270393 -3.5149184e-07 
Loop time of 0.00418305 on 1 procs for 1000 steps with 2 atoms

Performance: 20654765.779 tau/day, 239059.789 timesteps/s
373.5% CPU use with 1 MPI tasks x 1 OpenMP threads

MPI task timing breakdown:
Section |  min time  |  avg time  |  max time  |%varavg| %total
---------------------------------------------------------------
Pair    | 0.00052905 | 0.00052905 | 0.00052905 |   0.0 | 12.65
Bond    | 0.00031233 | 0.00031233 | 0.00031233 |   0.0 |  7.47
Neigh   | 0          | 0          | 0          |   0.0 |  0.00
Comm    | 0.00054216 | 0.00054216 | 0.00054216 |   0.0 | 12.96
Output  | 0.0014007  | 0.0014007  | 0.0014007  |   0.0 | 33.49
Modify  | 0.00054908 | 0.00054908 | 0.00054908 |   0.0 | 13.13
Other   |            | 0.0008497  |            |       | 20.31

Nlocal:    2 ave 2 max 2 min
Histogram: 1 0 0 0 0 0 0 0 0 0
Nghost:    0 ave 0 max 0 min
Histogram: 1 0 0 0 0 0 0 0 0 0
Neighs:    0 ave 0 max 0 min
Histogram: 1 0 0 0 0 0 0 0 0 0

Total # of neighbors = 0
Ave neighs/atom = 0
Ave special neighs/atom = 0
Neighbor list builds = 0
Dangerous builds = 0
  next a
  jump SELF loop
  displace_atoms atom2 move 0 -0.02 0
  run   1000
Neighbor list info ...
  update every 1 steps, delay 10 steps, check yes
  max neighbors/atom: 2000, page size: 100000
  master list distance cutoff = 2.8
  ghost atom cutoff = 2.8
  binsize = 1.4, bins = 29 29 29
  7 neighbor lists, perpetual/occasional/extra = 6 1 0
  (1) pair lj/expand/twopiece, perpetual, skip from (7)
      attributes: half, newton on
      pair build: skip
      stencil: none
      bin: none
  (2) pair lj/twopiece, perpetual, skip from (7)
      attributes: half, newton on
      pair build: skip
      stencil: none
      bin: none
  (3) pair soft/shift, perpetual, skip from (7)
      attributes: half, newton on
      pair build: skip
      stencil: none
      bin: none
  (4) pair zero, perpetual, skip from (7)
      attributes: half, newton on
      pair build: skip
      stencil: none
      bin: none
  (5) pair morse, perpetual, skip from (7)
      attributes: half, newton on
      pair build: skip
      stencil: none
      bin: none
  (6) compute pair/local, occasional, copy from (7)
      attributes: half, newton on
      pair build: copy
      stencil: none
      bin: none
  (7) neighbor class addition, perpetual
      attributes: half, newton on
      pair build: half/bin/newton
      stencil: half/bin/3d/newton
      bin: standard
Per MPI rank memory allocation (min/avg/max) = 9.833 | 9.833 | 9.833 Mbytes
Step Temp E_pair E_mol TotEng Press 
   19000            0 -0.0060309702            0 -0.0060309702 -3.7670804e-07 
   19200            0 -0.0060309702            0 -0.0060309702 -3.7670804e-07 
   19400            0 -0.0060309702            0 -0.0060309702 -3.7670804e-07 
   19600            0 -0.0060309702            0 -0.0060309702 -3.7670804e-07 
   19800            0 -0.0060309702            0 -0.0060309702 -3.7670804e-07 
   20000            0 -0.0060309702            0 -0.0060309702 -3.7670804e-07 
Loop time of 0.00406408 on 1 procs for 1000 steps with 2 atoms

Performance: 21259407.814 tau/day, 246057.961 timesteps/s
0.0% CPU use with 1 MPI tasks x 1 OpenMP threads

MPI task timing breakdown:
Section |  min time  |  avg time  |  max time  |%varavg| %total
---------------------------------------------------------------
Pair    | 0.00055218 | 0.00055218 | 0.00055218 |   0.0 | 13.59
Bond    | 0.00029778 | 0.00029778 | 0.00029778 |   0.0 |  7.33
Neigh   | 0          | 0          | 0          |   0.0 |  0.00
Comm    | 0.00054193 | 0.00054193 | 0.00054193 |   0.0 | 13.33
Output  | 0.0013094  | 0.0013094  | 0.0013094  |   0.0 | 32.22
Modify  | 0.00054121 | 0.00054121 | 0.00054121 |   0.0 | 13.32
Other   |            | 0.0008216  |            |       | 20.22

Nlocal:    2 ave 2 max 2 min
Histogram: 1 0 0 0 0 0 0 0 0 0
Nghost:    0 ave 0 max 0 min
Histogram: 1 0 0 0 0 0 0 0 0 0
Neighs:    0 ave 0 max 0 min
Histogram: 1 0 0 0 0 0 0 0 0 0

Total # of neighbors = 0
Ave neighs/atom = 0
Ave special neighs/atom = 0
Neighbor list builds = 0
Dangerous builds = 0
  next a
  jump SELF loop
  displace_atoms atom2 move 0 -0.02 0
  run   1000
Neighbor list info ...
  update every 1 steps, delay 10 steps, check yes
  max neighbors/atom: 2000, page size: 100000
  master list distance cutoff = 2.8
  ghost atom cutoff = 2.8
  binsize = 1.4, bins = 29 29 29
  7 neighbor lists, perpetual/occasional/extra = 6 1 0
  (1) pair lj/expand/twopiece, perpetual, skip from (7)
      attributes: half, newton on
      pair build: skip
      stencil: none
      bin: none
  (2) pair lj/twopiece, perpetual, skip from (7)
      attributes: half, newton on
      pair build: skip
      stencil: none
      bin: none
  (3) pair soft/shift, perpetual, skip from (7)
      attributes: half, newton on
      pair build: skip
      stencil: none
      bin: none
  (4) pair zero, perpetual, skip from (7)
      attributes: half, newton on
      pair build: skip
      stencil: none
      bin: none
  (5) pair morse, perpetual, skip from (7)
      attributes: half, newton on
      pair build: skip
      stencil: none
      bin: none
  (6) compute pair/local, occasional, copy from (7)
      attributes: half, newton on
      pair build: copy
      stencil: none
      bin: none
  (7) neighbor class addition, perpetual
      attributes: half, newton on
      pair build: half/bin/newton
      stencil: half/bin/3d/newton
      bin: standard
Per MPI rank memory allocation (min/avg/max) = 9.833 | 9.833 | 9.833 Mbytes
Step Temp E_pair E_mol TotEng Press 
   20000            0 -0.006469121            0 -0.006469121 -4.0405816e-07 
   20200            0 -0.006469121            0 -0.006469121 -4.0405816e-07 
   20400            0 -0.006469121            0 -0.006469121 -4.0405816e-07 
   20600            0 -0.006469121            0 -0.006469121 -4.0405816e-07 
   20800            0 -0.006469121            0 -0.006469121 -4.0405816e-07 
   21000            0 -0.006469121            0 -0.006469121 -4.0405816e-07 
Loop time of 0.00429511 on 1 procs for 1000 steps with 2 atoms

Performance: 20115895.953 tau/day, 232822.870 timesteps/s
0.0% CPU use with 1 MPI tasks x 1 OpenMP threads

MPI task timing breakdown:
Section |  min time  |  avg time  |  max time  |%varavg| %total
---------------------------------------------------------------
Pair    | 0.00054622 | 0.00054622 | 0.00054622 |   0.0 | 12.72
Bond    | 0.00029874 | 0.00029874 | 0.00029874 |   0.0 |  6.96
Neigh   | 0          | 0          | 0          |   0.0 |  0.00
Comm    | 0.0005672  | 0.0005672  | 0.0005672  |   0.0 | 13.21
Output  | 0.001492   | 0.001492   | 0.001492   |   0.0 | 34.74
Modify  | 0.00054693 | 0.00054693 | 0.00054693 |   0.0 | 12.73
Other   |            | 0.000844   |            |       | 19.65

Nlocal:    2 ave 2 max 2 min
Histogram: 1 0 0 0 0 0 0 0 0 0
Nghost:    0 ave 0 max 0 min
Histogram: 1 0 0 0 0 0 0 0 0 0
Neighs:    0 ave 0 max 0 min
Histogram: 1 0 0 0 0 0 0 0 0 0

Total # of neighbors = 0
Ave neighs/atom = 0
Ave special neighs/atom = 0
Neighbor list builds = 0
Dangerous builds = 0
  next a
  jump SELF loop
  displace_atoms atom2 move 0 -0.02 0
  run   1000
Neighbor list info ...
  update every 1 steps, delay 10 steps, check yes
  max neighbors/atom: 2000, page size: 100000
  master list distance cutoff = 2.8
  ghost atom cutoff = 2.8
  binsize = 1.4, bins = 29 29 29
  7 neighbor lists, perpetual/occasional/extra = 6 1 0
  (1) pair lj/expand/twopiece, perpetual, skip from (7)
      attributes: half, newton on
      pair build: skip
      stencil: none
      bin: none
  (2) pair lj/twopiece, perpetual, skip from (7)
      attributes: half, newton on
      pair build: skip
      stencil: none
      bin: none
  (3) pair soft/shift, perpetual, skip from (7)
      attributes: half, newton on
      pair build: skip
      stencil: none
      bin: none
  (4) pair zero, perpetual, skip from (7)
      attributes: half, newton on
      pair build: skip
      stencil: none
      bin: none
  (5) pair morse, perpetual, skip from (7)
      attributes: half, newton on
      pair build: skip
      stencil: none
      bin: none
  (6) compute pair/local, occasional, copy from (7)
      attributes: half, newton on
      pair build: copy
      stencil: none
      bin: none
  (7) neighbor class addition, perpetual
      attributes: half, newton on
      pair build: half/bin/newton
      stencil: half/bin/3d/newton
      bin: standard
Per MPI rank memory allocation (min/avg/max) = 9.833 | 9.833 | 9.833 Mbytes
Step Temp E_pair E_mol TotEng Press 
   21000            0 -0.0069448426            0 -0.0069448426 -4.337508e-07 
   21200            0 -0.0069448426            0 -0.0069448426 -4.337508e-07 
   21400            0 -0.0069448426            0 -0.0069448426 -4.337508e-07 
   21600            0 -0.0069448426            0 -0.0069448426 -4.337508e-07 
   21800            0 -0.0069448426            0 -0.0069448426 -4.337508e-07 
   22000            0 -0.0069448426            0 -0.0069448426 -4.337508e-07 
Loop time of 0.00391293 on 1 procs for 1000 steps with 2 atoms

Performance: 22080664.489 tau/day, 255563.246 timesteps/s
0.0% CPU use with 1 MPI tasks x 1 OpenMP threads

MPI task timing breakdown:
Section |  min time  |  avg time  |  max time  |%varavg| %total
---------------------------------------------------------------
Pair    | 0.00053144 | 0.00053144 | 0.00053144 |   0.0 | 13.58
Bond    | 0.00029683 | 0.00029683 | 0.00029683 |   0.0 |  7.59
Neigh   | 0          | 0          | 0          |   0.0 |  0.00
Comm    | 0.00052953 | 0.00052953 | 0.00052953 |   0.0 | 13.53
Output  | 0.0011926  | 0.0011926  | 0.0011926  |   0.0 | 30.48
Modify  | 0.00052357 | 0.00052357 | 0.00052357 |   0.0 | 13.38
Other   |            | 0.000839   |            |       | 21.44

Nlocal:    2 ave 2 max 2 min
Histogram: 1 0 0 0 0 0 0 0 0 0
Nghost:    0 ave 0 max 0 min
Histogram: 1 0 0 0 0 0 0 0 0 0
Neighs:    0 ave 0 max 0 min
Histogram: 1 0 0 0 0 0 0 0 0 0

Total # of neighbors = 0
Ave neighs/atom = 0
Ave special neighs/atom = 0
Neighbor list builds = 0
Dangerous builds = 0
  next a
  jump SELF loop
  displace_atoms atom2 move 0 -0.02 0
  run   1000
Neighbor list info ...
  update every 1 steps, delay 10 steps, check yes
  max neighbors/atom: 2000, page size: 100000
  master list distance cutoff = 2.8
  ghost atom cutoff = 2.8
  binsize = 1.4, bins = 29 29 29
  7 neighbor lists, perpetual/occasional/extra = 6 1 0
  (1) pair lj/expand/twopiece, perpetual, skip from (7)
      attributes: half, newton on
      pair build: skip
      stencil: none
      bin: none
  (2) pair lj/twopiece, perpetual, skip from (7)
      attributes: half, newton on
      pair build: skip
      stencil: none
      bin: none
  (3) pair soft/shift, perpetual, skip from (7)
      attributes: half, newton on
      pair build: skip
      stencil: none
      bin: none
  (4) pair zero, perpetual, skip from (7)
      attributes: half, newton on
      pair build: skip
      stencil: none
      bin: none
  (5) pair morse, perpetual, skip from (7)
      attributes: half, newton on
      pair build: skip
      stencil: none
      bin: none
  (6) compute pair/local, occasional, copy from (7)
      attributes: half, newton on
      pair build: copy
      stencil: none
      bin: none
  (7) neighbor class addition, perpetual
      attributes: half, newton on
      pair build: half/bin/newton
      stencil: half/bin/3d/newton
      bin: standard
Per MPI rank memory allocation (min/avg/max) = 9.833 | 9.833 | 9.833 Mbytes
Step Temp E_pair E_mol TotEng Press 
   22000            0 -0.0074618595            0 -0.0074618595 -4.6601771e-07 
   22200            0 -0.0074618595            0 -0.0074618595 -4.6601771e-07 
   22400            0 -0.0074618595            0 -0.0074618595 -4.6601771e-07 
   22600            0 -0.0074618595            0 -0.0074618595 -4.6601771e-07 
   22800            0 -0.0074618595            0 -0.0074618595 -4.6601771e-07 
   23000            0 -0.0074618595            0 -0.0074618595 -4.6601771e-07 
Loop time of 0.003896 on 1 procs for 1000 steps with 2 atoms

Performance: 22176602.754 tau/day, 256673.643 timesteps/s
0.0% CPU use with 1 MPI tasks x 1 OpenMP threads

MPI task timing breakdown:
Section |  min time  |  avg time  |  max time  |%varavg| %total
---------------------------------------------------------------
Pair    | 0.00050426 | 0.00050426 | 0.00050426 |   0.0 | 12.94
Bond    | 0.00030565 | 0.00030565 | 0.00030565 |   0.0 |  7.85
Neigh   | 0          | 0          | 0          |   0.0 |  0.00
Comm    | 0.00051165 | 0.00051165 | 0.00051165 |   0.0 | 13.13
Output  | 0.0011976  | 0.0011976  | 0.0011976  |   0.0 | 30.74
Modify  | 0.00054002 | 0.00054002 | 0.00054002 |   0.0 | 13.86
Other   |            | 0.0008368  |            |       | 21.48

Nlocal:    2 ave 2 max 2 min
Histogram: 1 0 0 0 0 0 0 0 0 0
Nghost:    0 ave 0 max 0 min
Histogram: 1 0 0 0 0 0 0 0 0 0
Neighs:    0 ave 0 max 0 min
Histogram: 1 0 0 0 0 0 0 0 0 0

Total # of neighbors = 0
Ave neighs/atom = 0
Ave special neighs/atom = 0
Neighbor list builds = 0
Dangerous builds = 0
  next a
  jump SELF loop
  displace_atoms atom2 move 0 -0.02 0
  run   1000
Neighbor list info ...
  update every 1 steps, delay 10 steps, check yes
  max neighbors/atom: 2000, page size: 100000
  master list distance cutoff = 2.8
  ghost atom cutoff = 2.8
  binsize = 1.4, bins = 29 29 29
  7 neighbor lists, perpetual/occasional/extra = 6 1 0
  (1) pair lj/expand/twopiece, perpetual, skip from (7)
      attributes: half, newton on
      pair build: skip
      stencil: none
      bin: none
  (2) pair lj/twopiece, perpetual, skip from (7)
      attributes: half, newton on
      pair build: skip
      stencil: none
      bin: none
  (3) pair soft/shift, perpetual, skip from (7)
      attributes: half, newton on
      pair build: skip
      stencil: none
      bin: none
  (4) pair zero, perpetual, skip from (7)
      attributes: half, newton on
      pair build: skip
      stencil: none
      bin: none
  (5) pair morse, perpetual, skip from (7)
      attributes: half, newton on
      pair build: skip
      stencil: none
      bin: none
  (6) compute pair/local, occasional, copy from (7)
      attributes: half, newton on
      pair build: copy
      stencil: none
      bin: none
  (7) neighbor class addition, perpetual
      attributes: half, newton on
      pair build: half/bin/newton
      stencil: half/bin/3d/newton
      bin: standard
Per MPI rank memory allocation (min/avg/max) = 9.833 | 9.833 | 9.833 Mbytes
Step Temp E_pair E_mol TotEng Press 
   23000            0 -0.0080243161            0 -0.0080243161 -5.0111667e-07 
   23200            0 -0.0080243161            0 -0.0080243161 -5.0111667e-07 
   23400            0 -0.0080243161            0 -0.0080243161 -5.0111667e-07 
   23600            0 -0.0080243161            0 -0.0080243161 -5.0111667e-07 
   23800            0 -0.0080243161            0 -0.0080243161 -5.0111667e-07 
   24000            0 -0.0080243161            0 -0.0080243161 -5.0111667e-07 
Loop time of 0.00389814 on 1 procs for 1000 steps with 2 atoms

Performance: 22164395.450 tau/day, 256532.355 timesteps/s
0.0% CPU use with 1 MPI tasks x 1 OpenMP threads

MPI task timing breakdown:
Section |  min time  |  avg time  |  max time  |%varavg| %total
---------------------------------------------------------------
Pair    | 0.0005126  | 0.0005126  | 0.0005126  |   0.0 | 13.15
Bond    | 0.00030756 | 0.00030756 | 0.00030756 |   0.0 |  7.89
Neigh   | 0          | 0          | 0          |   0.0 |  0.00
Comm    | 0.00053835 | 0.00053835 | 0.00053835 |   0.0 | 13.81
Output  | 0.0011985  | 0.0011985  | 0.0011985  |   0.0 | 30.75
Modify  | 0.00050592 | 0.00050592 | 0.00050592 |   0.0 | 12.98
Other   |            | 0.0008352  |            |       | 21.43

Nlocal:    2 ave 2 max 2 min
Histogram: 1 0 0 0 0 0 0 0 0 0
Nghost:    0 ave 0 max 0 min
Histogram: 1 0 0 0 0 0 0 0 0 0
Neighs:    0 ave 0 max 0 min
Histogram: 1 0 0 0 0 0 0 0 0 0

Total # of neighbors = 0
Ave neighs/atom = 0
Ave special neighs/atom = 0
Neighbor list builds = 0
Dangerous builds = 0
  next a
  jump SELF loop
  displace_atoms atom2 move 0 -0.02 0
  run   1000
Neighbor list info ...
  update every 1 steps, delay 10 steps, check yes
  max neighbors/atom: 2000, page size: 100000
  master list distance cutoff = 2.8
  ghost atom cutoff = 2.8
  binsize = 1.4, bins = 29 29 29
  7 neighbor lists, perpetual/occasional/extra = 6 1 0
  (1) pair lj/expand/twopiece, perpetual, skip from (7)
      attributes: half, newton on
      pair build: skip
      stencil: none
      bin: none
  (2) pair lj/twopiece, perpetual, skip from (7)
      attributes: half, newton on
      pair build: skip
      stencil: none
      bin: none
  (3) pair soft/shift, perpetual, skip from (7)
      attributes: half, newton on
      pair build: skip
      stencil: none
      bin: none
  (4) pair zero, perpetual, skip from (7)
      attributes: half, newton on
      pair build: skip
      stencil: none
      bin: none
  (5) pair morse, perpetual, skip from (7)
      attributes: half, newton on
      pair build: skip
      stencil: none
      bin: none
  (6) compute pair/local, occasional, copy from (7)
      attributes: half, newton on
      pair build: copy
      stencil: none
      bin: none
  (7) neighbor class addition, perpetual
      attributes: half, newton on
      pair build: half/bin/newton
      stencil: half/bin/3d/newton
      bin: standard
Per MPI rank memory allocation (min/avg/max) = 9.833 | 9.833 | 9.833 Mbytes
Step Temp E_pair E_mol TotEng Press 
   24000            0 -0.0086368298            0 -0.0086368298 -5.3933484e-07 
   24200            0 -0.0086368298            0 -0.0086368298 -5.3933484e-07 
   24400            0 -0.0086368298            0 -0.0086368298 -5.3933484e-07 
   24600            0 -0.0086368298            0 -0.0086368298 -5.3933484e-07 
   24800            0 -0.0086368298            0 -0.0086368298 -5.3933484e-07 
   25000            0 -0.0086368298            0 -0.0086368298 -5.3933484e-07 
Loop time of 0.00387597 on 1 procs for 1000 steps with 2 atoms

Performance: 22291189.371 tau/day, 257999.877 timesteps/s
0.0% CPU use with 1 MPI tasks x 1 OpenMP threads

MPI task timing breakdown:
Section |  min time  |  avg time  |  max time  |%varavg| %total
---------------------------------------------------------------
Pair    | 0.00051093 | 0.00051093 | 0.00051093 |   0.0 | 13.18
Bond    | 0.00029778 | 0.00029778 | 0.00029778 |   0.0 |  7.68
Neigh   | 0          | 0          | 0          |   0.0 |  0.00
Comm    | 0.00053    | 0.00053    | 0.00053    |   0.0 | 13.67
Output  | 0.0011988  | 0.0011988  | 0.0011988  |   0.0 | 30.93
Modify  | 0.00051093 | 0.00051093 | 0.00051093 |   0.0 | 13.18
Other   |            | 0.0008276  |            |       | 21.35

Nlocal:    2 ave 2 max 2 min
Histogram: 1 0 0 0 0 0 0 0 0 0
Nghost:    0 ave 0 max 0 min
Histogram: 1 0 0 0 0 0 0 0 0 0
Neighs:    0 ave 0 max 0 min
Histogram: 1 0 0 0 0 0 0 0 0 0

Total # of neighbors = 0
Ave neighs/atom = 0
Ave special neighs/atom = 0
Neighbor list builds = 0
Dangerous builds = 0
  next a
  jump SELF loop
  displace_atoms atom2 move 0 -0.02 0
  run   1000
Neighbor list info ...
  update every 1 steps, delay 10 steps, check yes
  max neighbors/atom: 2000, page size: 100000
  master list distance cutoff = 2.8
  ghost atom cutoff = 2.8
  binsize = 1.4, bins = 29 29 29
  7 neighbor lists, perpetual/occasional/extra = 6 1 0
  (1) pair lj/expand/twopiece, perpetual, skip from (7)
      attributes: half, newton on
      pair build: skip
      stencil: none
      bin: none
  (2) pair lj/twopiece, perpetual, skip from (7)
      attributes: half, newton on
      pair build: skip
      stencil: none
      bin: none
  (3) pair soft/shift, perpetual, skip from (7)
      attributes: half, newton on
      pair build: skip
      stencil: none
      bin: none
  (4) pair zero, perpetual, skip from (7)
      attributes: half, newton on
      pair build: skip
      stencil: none
      bin: none
  (5) pair morse, perpetual, skip from (7)
      attributes: half, newton on
      pair build: skip
      stencil: none
      bin: none
  (6) compute pair/local, occasional, copy from (7)
      attributes: half, newton on
      pair build: copy
      stencil: none
      bin: none
  (7) neighbor class addition, perpetual
      attributes: half, newton on
      pair build: half/bin/newton
      stencil: half/bin/3d/newton
      bin: standard
Per MPI rank memory allocation (min/avg/max) = 9.833 | 9.833 | 9.833 Mbytes
Step Temp E_pair E_mol TotEng Press 
   25000            0 -0.0093045521            0 -0.0093045521 -5.8099241e-07 
   25200            0 -0.0093045521            0 -0.0093045521 -5.8099241e-07 
   25400            0 -0.0093045521            0 -0.0093045521 -5.8099241e-07 
   25600            0 -0.0093045521            0 -0.0093045521 -5.8099241e-07 
   25800            0 -0.0093045521            0 -0.0093045521 -5.8099241e-07 
   26000            0 -0.0093045521            0 -0.0093045521 -5.8099241e-07 
[...]
Pair    | 0.00063729 | 0.00063729 | 0.00063729 |   0.0 | 13.35
Bond    | 0.00035501 | 0.00035501 | 0.00035501 |   0.0 |  7.44
Neigh   | 0          | 0          | 0          |   0.0 |  0.00
Comm    | 0.00061202 | 0.00061202 | 0.00061202 |   0.0 | 12.82
Output  | 0.0016496  | 0.0016496  | 0.0016496  |   0.0 | 34.55
Modify  | 0.00059795 | 0.00059795 | 0.00059795 |   0.0 | 12.52
Other   |            | 0.0009222  |            |       | 19.32

Nlocal:    2 ave 2 max 2 min
Histogram: 1 0 0 0 0 0 0 0 0 0
Nghost:    0 ave 0 max 0 min
Histogram: 1 0 0 0 0 0 0 0 0 0
Neighs:    0 ave 0 max 0 min
Histogram: 1 0 0 0 0 0 0 0 0 0

Total # of neighbors = 0
Ave neighs/atom = 0
Ave special neighs/atom = 0
Neighbor list builds = 0
Dangerous builds = 0
  next a
  jump SELF loop
  displace_atoms atom2 move 0 -0.02 0
  run   1000
Neighbor list info ...
  update every 1 steps, delay 10 steps, check yes
  max neighbors/atom: 2000, page size: 100000
  master list distance cutoff = 2.8
  ghost atom cutoff = 2.8
  binsize = 1.4, bins = 29 29 29
  7 neighbor lists, perpetual/occasional/extra = 6 1 0
  (1) pair lj/expand/twopiece, perpetual, skip from (7)
      attributes: half, newton on
      pair build: skip
      stencil: none
      bin: none
  (2) pair lj/twopiece, perpetual, skip from (7)
      attributes: half, newton on
      pair build: skip
      stencil: none
      bin: none
  (3) pair soft/shift, perpetual, skip from (7)
      attributes: half, newton on
      pair build: skip
      stencil: none
      bin: none
  (4) pair zero, perpetual, skip from (7)
      attributes: half, newton on
      pair build: skip
      stencil: none
      bin: none
  (5) pair morse, perpetual, skip from (7)
      attributes: half, newton on
      pair build: skip
      stencil: none
      bin: none
  (6) compute pair/local, occasional, copy from (7)
      attributes: half, newton on
      pair build: copy
      stencil: none
      bin: none
  (7) neighbor class addition, perpetual
      attributes: half, newton on
      pair build: half/bin/newton
      stencil: half/bin/3d/newton
      bin: standard
Per MPI rank memory allocation (min/avg/max) = 9.833 | 9.833 | 9.833 Mbytes
Step Temp E_pair E_mol TotEng Press 
  205000            0 -0.0024408102            0 -0.0024408102 -1.5251338e-07 
  205200            0 -0.0024408102            0 -0.0024408102 -1.5251338e-07 
  205400            0 -0.0024408102            0 -0.0024408102 -1.5251338e-07 
  205600            0 -0.0024408102            0 -0.0024408102 -1.5251338e-07 
  205800            0 -0.0024408102            0 -0.0024408102 -1.5251338e-07 
  206000            0 -0.0024408102            0 -0.0024408102 -1.5251338e-07 
Loop time of 0.00524998 on 1 procs for 1000 steps with 2 atoms

Performance: 16457214.605 tau/day, 190477.021 timesteps/s
0.0% CPU use with 1 MPI tasks x 1 OpenMP threads

MPI task timing breakdown:
Section |  min time  |  avg time  |  max time  |%varavg| %total
---------------------------------------------------------------
Pair    | 0.00068641 | 0.00068641 | 0.00068641 |   0.0 | 13.07
Bond    | 0.0003674  | 0.0003674  | 0.0003674  |   0.0 |  7.00
Neigh   | 0          | 0          | 0          |   0.0 |  0.00
Comm    | 0.00071144 | 0.00071144 | 0.00071144 |   0.0 | 13.55
Output  | 0.0018651  | 0.0018651  | 0.0018651  |   0.0 | 35.53
Modify  | 0.00062323 | 0.00062323 | 0.00062323 |   0.0 | 11.87
Other   |            | 0.0009964  |            |       | 18.98

Nlocal:    2 ave 2 max 2 min
Histogram: 1 0 0 0 0 0 0 0 0 0
Nghost:    0 ave 0 max 0 min
Histogram: 1 0 0 0 0 0 0 0 0 0
Neighs:    0 ave 0 max 0 min
Histogram: 1 0 0 0 0 0 0 0 0 0

Total # of neighbors = 0
Ave neighs/atom = 0
Ave special neighs/atom = 0
Neighbor list builds = 0
Dangerous builds = 0
  next a
  jump SELF loop
  displace_atoms atom2 move 0 -0.02 0
  run   1000
Neighbor list info ...
  update every 1 steps, delay 10 steps, check yes
  max neighbors/atom: 2000, page size: 100000
  master list distance cutoff = 2.8
  ghost atom cutoff = 2.8
  binsize = 1.4, bins = 29 29 29
  7 neighbor lists, perpetual/occasional/extra = 6 1 0
  (1) pair lj/expand/twopiece, perpetual, skip from (7)
      attributes: half, newton on
      pair build: skip
      stencil: none
      bin: none
  (2) pair lj/twopiece, perpetual, skip from (7)
      attributes: half, newton on
      pair build: skip
      stencil: none
      bin: none
  (3) pair soft/shift, perpetual, skip from (7)
      attributes: half, newton on
      pair build: skip
      stencil: none
      bin: none
  (4) pair zero, perpetual, skip from (7)
      attributes: half, newton on
      pair build: skip
      stencil: none
      bin: none
  (5) pair morse, perpetual, skip from (7)
      attributes: half, newton on
      pair build: skip
      stencil: none
      bin: none
  (6) compute pair/local, occasional, copy from (7)
      attributes: half, newton on
      pair build: copy
      stencil: none
      bin: none
  (7) neighbor class addition, perpetual
      attributes: half, newton on
      pair build: half/bin/newton
      stencil: half/bin/3d/newton
      bin: standard
Per MPI rank memory allocation (min/avg/max) = 9.833 | 9.833 | 9.833 Mbytes
Step Temp E_pair E_mol TotEng Press 
  206000            0 -0.0022993862            0 -0.0022993862 -1.4367858e-07 
  206200            0 -0.0022993862            0 -0.0022993862 -1.4367858e-07 
  206400            0 -0.0022993862            0 -0.0022993862 -1.4367858e-07 
  206600            0 -0.0022993862            0 -0.0022993862 -1.4367858e-07 
  206800            0 -0.0022993862            0 -0.0022993862 -1.4367858e-07 
  207000            0 -0.0022993862            0 -0.0022993862 -1.4367858e-07 
Loop time of 0.00436902 on 1 procs for 1000 steps with 2 atoms

Performance: 19775599.760 tau/day, 228884.256 timesteps/s
357.6% CPU use with 1 MPI tasks x 1 OpenMP threads

MPI task timing breakdown:
Section |  min time  |  avg time  |  max time  |%varavg| %total
---------------------------------------------------------------
Pair    | 0.00059581 | 0.00059581 | 0.00059581 |   0.0 | 13.64
Bond    | 0.00031853 | 0.00031853 | 0.00031853 |   0.0 |  7.29
Neigh   | 0          | 0          | 0          |   0.0 |  0.00
Comm    | 0.00056171 | 0.00056171 | 0.00056171 |   0.0 | 12.86
Output  | 0.0014615  | 0.0014615  | 0.0014615  |   0.0 | 33.45
Modify  | 0.0005548  | 0.0005548  | 0.0005548  |   0.0 | 12.70
Other   |            | 0.0008767  |            |       | 20.07

Nlocal:    2 ave 2 max 2 min
Histogram: 1 0 0 0 0 0 0 0 0 0
Nghost:    0 ave 0 max 0 min
Histogram: 1 0 0 0 0 0 0 0 0 0
Neighs:    0 ave 0 max 0 min
Histogram: 1 0 0 0 0 0 0 0 0 0

Total # of neighbors = 0
Ave neighs/atom = 0
Ave special neighs/atom = 0
Neighbor list builds = 0
Dangerous builds = 0
  next a
  jump SELF loop
  displace_atoms atom2 move 0 -0.02 0
  run   1000
Neighbor list info ...
  update every 1 steps, delay 10 steps, check yes
  max neighbors/atom: 2000, page size: 100000
  master list distance cutoff = 2.8
  ghost atom cutoff = 2.8
  binsize = 1.4, bins = 29 29 29
  7 neighbor lists, perpetual/occasional/extra = 6 1 0
  (1) pair lj/expand/twopiece, perpetual, skip from (7)
      attributes: half, newton on
      pair build: skip
      stencil: none
      bin: none
  (2) pair lj/twopiece, perpetual, skip from (7)
      attributes: half, newton on
      pair build: skip
      stencil: none
      bin: none
  (3) pair soft/shift, perpetual, skip from (7)
      attributes: half, newton on
      pair build: skip
      stencil: none
      bin: none
  (4) pair zero, perpetual, skip from (7)
      attributes: half, newton on
      pair build: skip
      stencil: none
      bin: none
  (5) pair morse, perpetual, skip from (7)
      attributes: half, newton on
      pair build: skip
      stencil: none
      bin: none
  (6) compute pair/local, occasional, copy from (7)
      attributes: half, newton on
      pair build: copy
      stencil: none
      bin: none
  (7) neighbor class addition, perpetual
      attributes: half, newton on
      pair build: half/bin/newton
      stencil: half/bin/3d/newton
      bin: standard
Per MPI rank memory allocation (min/avg/max) = 9.833 | 9.833 | 9.833 Mbytes
Step Temp E_pair E_mol TotEng Press 
  207000            0 -0.0021674289            0 -0.0021674289 -1.3543493e-07 
  207200            0 -0.0021674289            0 -0.0021674289 -1.3543493e-07 
  207400            0 -0.0021674289            0 -0.0021674289 -1.3543493e-07 
  207600            0 -0.0021674289            0 -0.0021674289 -1.3543493e-07 
  207800            0 -0.0021674289            0 -0.0021674289 -1.3543493e-07 
  208000            0 -0.0021674289            0 -0.0021674289 -1.3543493e-07 
Loop time of 0.00399303 on 1 procs for 1000 steps with 2 atoms

Performance: 21637680.057 tau/day, 250436.112 timesteps/s
0.0% CPU use with 1 MPI tasks x 1 OpenMP threads

MPI task timing breakdown:
Section |  min time  |  avg time  |  max time  |%varavg| %total
---------------------------------------------------------------
Pair    | 0.00056696 | 0.00056696 | 0.00056696 |   0.0 | 14.20
Bond    | 0.00029087 | 0.00029087 | 0.00029087 |   0.0 |  7.28
Neigh   | 0          | 0          | 0          |   0.0 |  0.00
Comm    | 0.00055313 | 0.00055313 | 0.00055313 |   0.0 | 13.85
Output  | 0.0011885  | 0.0011885  | 0.0011885  |   0.0 | 29.76
Modify  | 0.00053859 | 0.00053859 | 0.00053859 |   0.0 | 13.49
Other   |            | 0.000855   |            |       | 21.41

Nlocal:    2 ave 2 max 2 min
Histogram: 1 0 0 0 0 0 0 0 0 0
Nghost:    0 ave 0 max 0 min
Histogram: 1 0 0 0 0 0 0 0 0 0
Neighs:    0 ave 0 max 0 min
Histogram: 1 0 0 0 0 0 0 0 0 0

Total # of neighbors = 0
Ave neighs/atom = 0
Ave special neighs/atom = 0
Neighbor list builds = 0
Dangerous builds = 0
  next a
  jump SELF loop
  displace_atoms atom2 move 0 -0.02 0
  run   1000
Neighbor list info ...
  update every 1 steps, delay 10 steps, check yes
  max neighbors/atom: 2000, page size: 100000
  master list distance cutoff = 2.8
  ghost atom cutoff = 2.8
  binsize = 1.4, bins = 29 29 29
  7 neighbor lists, perpetual/occasional/extra = 6 1 0
  (1) pair lj/expand/twopiece, perpetual, skip from (7)
      attributes: half, newton on
      pair build: skip
      stencil: none
      bin: none
  (2) pair lj/twopiece, perpetual, skip from (7)
      attributes: half, newton on
      pair build: skip
      stencil: none
      bin: none
  (3) pair soft/shift, perpetual, skip from (7)
      attributes: half, newton on
      pair build: skip
      stencil: none
      bin: none
  (4) pair zero, perpetual, skip from (7)
      attributes: half, newton on
      pair build: skip
      stencil: none
      bin: none
  (5) pair morse, perpetual, skip from (7)
      attributes: half, newton on
      pair build: skip
      stencil: none
      bin: none
  (6) compute pair/local, occasional, copy from (7)
      attributes: half, newton on
      pair build: copy
      stencil: none
      bin: none
  (7) neighbor class addition, perpetual
      attributes: half, newton on
      pair build: half/bin/newton
      stencil: half/bin/3d/newton
      bin: standard
Per MPI rank memory allocation (min/avg/max) = 9.833 | 9.833 | 9.833 Mbytes
Step Temp E_pair E_mol TotEng Press 
  208000            0 -0.0020442212            0 -0.0020442212 -1.277377e-07 
  208200            0 -0.0020442212            0 -0.0020442212 -1.277377e-07 
  208400            0 -0.0020442212            0 -0.0020442212 -1.277377e-07 
  208600            0 -0.0020442212            0 -0.0020442212 -1.277377e-07 
  208800            0 -0.0020442212            0 -0.0020442212 -1.277377e-07 
  209000            0 -0.0020442212            0 -0.0020442212 -1.277377e-07 
Loop time of 0.00412607 on 1 procs for 1000 steps with 2 atoms

Performance: 20940013.036 tau/day, 242361.262 timesteps/s
0.0% CPU use with 1 MPI tasks x 1 OpenMP threads

MPI task timing breakdown:
Section |  min time  |  avg time  |  max time  |%varavg| %total
---------------------------------------------------------------
Pair    | 0.0005517  | 0.0005517  | 0.0005517  |   0.0 | 13.37
Bond    | 0.00031996 | 0.00031996 | 0.00031996 |   0.0 |  7.75
Neigh   | 0          | 0          | 0          |   0.0 |  0.00
Comm    | 0.00055289 | 0.00055289 | 0.00055289 |   0.0 | 13.40
Output  | 0.0013082  | 0.0013082  | 0.0013082  |   0.0 | 31.71
Modify  | 0.00054932 | 0.00054932 | 0.00054932 |   0.0 | 13.31
Other   |            | 0.000844   |            |       | 20.46

Nlocal:    2 ave 2 max 2 min
Histogram: 1 0 0 0 0 0 0 0 0 0
Nghost:    0 ave 0 max 0 min
Histogram: 1 0 0 0 0 0 0 0 0 0
Neighs:    0 ave 0 max 0 min
Histogram: 1 0 0 0 0 0 0 0 0 0

Total # of neighbors = 0
Ave neighs/atom = 0
Ave special neighs/atom = 0
Neighbor list builds = 0
Dangerous builds = 0
  next a
  jump SELF loop
  displace_atoms atom2 move 0 -0.02 0
  run   1000
Neighbor list info ...
  update every 1 steps, delay 10 steps, check yes
  max neighbors/atom: 2000, page size: 100000
  master list distance cutoff = 2.8
  ghost atom cutoff = 2.8
  binsize = 1.4, bins = 29 29 29
  7 neighbor lists, perpetual/occasional/extra = 6 1 0
  (1) pair lj/expand/twopiece, perpetual, skip from (7)
      attributes: half, newton on
      pair build: skip
      stencil: none
      bin: none
  (2) pair lj/twopiece, perpetual, skip from (7)
      attributes: half, newton on
      pair build: skip
      stencil: none
      bin: none
  (3) pair soft/shift, perpetual, skip from (7)
      attributes: half, newton on
      pair build: skip
      stencil: none
      bin: none
  (4) pair zero, perpetual, skip from (7)
      attributes: half, newton on
      pair build: skip
      stencil: none
      bin: none
  (5) pair morse, perpetual, skip from (7)
      attributes: half, newton on
      pair build: skip
      stencil: none
      bin: none
  (6) compute pair/local, occasional, copy from (7)
      attributes: half, newton on
      pair build: copy
      stencil: none
      bin: none
  (7) neighbor class addition, perpetual
      attributes: half, newton on
      pair build: half/bin/newton
      stencil: half/bin/3d/newton
      bin: standard
Per MPI rank memory allocation (min/avg/max) = 9.833 | 9.833 | 9.833 Mbytes
Step Temp E_pair E_mol TotEng Press 
  209000            0 -0.0019291065            0 -0.0019291065 -1.2054589e-07 
  209200            0 -0.0019291065            0 -0.0019291065 -1.2054589e-07 
  209400            0 -0.0019291065            0 -0.0019291065 -1.2054589e-07 
  209600            0 -0.0019291065            0 -0.0019291065 -1.2054589e-07 
  209800            0 -0.0019291065            0 -0.0019291065 -1.2054589e-07 
  210000            0 -0.0019291065            0 -0.0019291065 -1.2054589e-07 
Loop time of 0.00394917 on 1 procs for 1000 steps with 2 atoms

Performance: 21878040.667 tau/day, 253218.063 timesteps/s
395.7% CPU use with 1 MPI tasks x 1 OpenMP threads

MPI task timing breakdown:
Section |  min time  |  avg time  |  max time  |%varavg| %total
---------------------------------------------------------------
Pair    | 0.00054669 | 0.00054669 | 0.00054669 |   0.0 | 13.84
Bond    | 0.0003159  | 0.0003159  | 0.0003159  |   0.0 |  8.00
Neigh   | 0          | 0          | 0          |   0.0 |  0.00
Comm    | 0.00054693 | 0.00054693 | 0.00054693 |   0.0 | 13.85
Output  | 0.001157   | 0.001157   | 0.001157   |   0.0 | 29.30
Modify  | 0.00054336 | 0.00054336 | 0.00054336 |   0.0 | 13.76
Other   |            | 0.0008392  |            |       | 21.25

Nlocal:    2 ave 2 max 2 min
Histogram: 1 0 0 0 0 0 0 0 0 0
Nghost:    0 ave 0 max 0 min
Histogram: 1 0 0 0 0 0 0 0 0 0
Neighs:    0 ave 0 max 0 min
Histogram: 1 0 0 0 0 0 0 0 0 0

Total # of neighbors = 0
Ave neighs/atom = 0
Ave special neighs/atom = 0
Neighbor list builds = 0
Dangerous builds = 0
  next a
  jump SELF loop
  displace_atoms atom2 move 0 -0.02 0
  run   1000
Neighbor list info ...
  update every 1 steps, delay 10 steps, check yes
  max neighbors/atom: 2000, page size: 100000
  master list distance cutoff = 2.8
  ghost atom cutoff = 2.8
  binsize = 1.4, bins = 29 29 29
  7 neighbor lists, perpetual/occasional/extra = 6 1 0
  (1) pair lj/expand/twopiece, perpetual, skip from (7)
      attributes: half, newton on
      pair build: skip
      stencil: none
      bin: none
  (2) pair lj/twopiece, perpetual, skip from (7)
      attributes: half, newton on
      pair build: skip
      stencil: none
      bin: none
  (3) pair soft/shift, perpetual, skip from (7)
      attributes: half, newton on
      pair build: skip
      stencil: none
      bin: none
  (4) pair zero, perpetual, skip from (7)
      attributes: half, newton on
      pair build: skip
      stencil: none
      bin: none
  (5) pair morse, perpetual, skip from (7)
      attributes: half, newton on
      pair build: skip
      stencil: none
      bin: none
  (6) compute pair/local, occasional, copy from (7)
      attributes: half, newton on
      pair build: copy
      stencil: none
      bin: none
  (7) neighbor class addition, perpetual
      attributes: half, newton on
      pair build: half/bin/newton
      stencil: half/bin/3d/newton
      bin: standard
Per MPI rank memory allocation (min/avg/max) = 9.833 | 9.833 | 9.833 Mbytes
Step Temp E_pair E_mol TotEng Press 
  210000            0 -0.001821483            0 -0.001821483 -1.1382195e-07 
  210200            0 -0.001821483            0 -0.001821483 -1.1382195e-07 
  210400            0 -0.001821483            0 -0.001821483 -1.1382195e-07 
  210600            0 -0.001821483            0 -0.001821483 -1.1382195e-07 
  210800            0 -0.001821483            0 -0.001821483 -1.1382195e-07 
  211000            0 -0.001821483            0 -0.001821483 -1.1382195e-07 
Loop time of 0.00401998 on 1 procs for 1000 steps with 2 atoms

Performance: 21492667.434 tau/day, 248757.725 timesteps/s
0.0% CPU use with 1 MPI tasks x 1 OpenMP threads

MPI task timing breakdown:
Section |  min time  |  avg time  |  max time  |%varavg| %total
---------------------------------------------------------------
Pair    | 0.00055957 | 0.00055957 | 0.00055957 |   0.0 | 13.92
Bond    | 0.00031519 | 0.00031519 | 0.00031519 |   0.0 |  7.84
Neigh   | 0          | 0          | 0          |   0.0 |  0.00
Comm    | 0.0005424  | 0.0005424  | 0.0005424  |   0.0 | 13.49
Output  | 0.0012085  | 0.0012085  | 0.0012085  |   0.0 | 30.06
Modify  | 0.00055027 | 0.00055027 | 0.00055027 |   0.0 | 13.69
Other   |            | 0.000844   |            |       | 21.00

Nlocal:    2 ave 2 max 2 min
Histogram: 1 0 0 0 0 0 0 0 0 0
Nghost:    0 ave 0 max 0 min
Histogram: 1 0 0 0 0 0 0 0 0 0
Neighs:    0 ave 0 max 0 min
Histogram: 1 0 0 0 0 0 0 0 0 0

Total # of neighbors = 0
Ave neighs/atom = 0
Ave special neighs/atom = 0
Neighbor list builds = 0
Dangerous builds = 0
  next a
  jump SELF loop


# ----------------- Run Section -----------------

# The lines above define the system you want to simulate.
# What you do next is up to you.
# Typically a user would minimize and equilibrate
# the system using commands similar to the following:
#  ----   examples   ----
#
#  -- minimize --
# minimize 1.0e-5 1.0e-7 1000 10000
# (Note: Some fixes, for example "shake", interfere with the minimize command,
#        You can use the "unfix" command to disable them before minimization.)
#  -- declare time step for normal MD --
# timestep 1.0
#  -- run at constant pressure (Nose-Hoover)--
# fix   fxnpt all npt temp 300.0 300.0 100.0 iso 1.0 1.0 1000.0 drag 1.0
#  -- ALTERNATELY, run at constant volume (Nose-Hoover) --
# fix   fxnvt all nvt temp 300.0 300.0 500.0 tchain 1
#  -- ALTERNATELY, run at constant volume using Langevin dynamics. --
#  -- (This is good for sparse CG polymers in implicit solvent.)   --
# fix fxLAN all langevin 300.0 300.0 5000 48279
# fix fxNVE all nve  #(<--needed by fix langevin)
#  -- Now, finally run the simulation --
# run   50000
#  ---- (end of examples) ----

Total wall time: 0:00:01
